27
Energy=0.644796478733884
Cl 3.3677 -5.9201 4.4216
C 3.3524 -4.3808 3.6083
C 2.2621 -4.0356 2.8027
C 2.2578 -2.7987 2.165
C 3.3247 -1.8969 2.3169
C 4.4144 -2.2828 3.1154
C 4.4362 -3.5147 3.7682
Cl 5.7561 -1.1943 3.3262
C 3.3133 -0.5984 1.6211
N 2.3521 0.245 1.5337
N 1.2396 0.0 2.3462
C 0.0 -0.0 1.7595
S 0.0 0.0 0.0
N -1.1104 -0.0545 2.4586
N -1.053 -0.073 3.8087
C 0.0876 -0.059 4.4395
C 1.3852 -0.0141 3.7564
O 2.4757 0.0069 4.2918
C 0.1119 -0.0905 5.9345
H 1.4346 -4.734 2.6766
H 1.4222 -2.5317 1.5154
H 5.2822 -3.7905 4.3964
H 4.2144 -0.3119 1.0642
Au -2.3131 -0.0884 -0.2339
H -0.9158 -0.1179 6.3173
H 0.6371 0.7929 6.3319
H 0.669 -0.9711 6.2936
22
Energy=0.2279381505643095
C -2.8677 -1.2064 1.3414
O -2.4026 0.0063 1.9319
C -1.1895 -0.0446 2.5506
C -0.0 0.0 1.7796
S 0.0 0.0 0.0
C 1.2451 -0.0 2.4227
C 1.3096 -0.0683 3.8156
C 0.1486 -0.0894 4.5777
C -1.1128 -0.0603 3.9581
C -2.2967 -0.0451 4.9037
O -2.0995 -0.2032 6.0927
C -3.7005 0.1933 4.3939
Cl 2.8695 -0.0925 4.6014
H -3.844 -0.981 0.8927
H -2.1776 -1.557 0.5597
H -2.9874 -1.9893 2.1101
Au -1.3501 1.8054 -0.4968
H 2.1582 0.0609 1.8301
H 0.183 -0.1211 5.6665
H -3.7458 1.048 3.7059
H -4.056 -0.6825 3.8296
H -4.352 0.3483 5.2634
33
Energy=-0.9780838354379893
C 4.7566 -2.7905 6.514
C 3.4626 -2.3112 7.172
C 2.9033 -1.0209 6.5763
C 1.5961 -0.5273 7.2107
C 1.0438 0.4683 6.1886
N 1.5922 0.0112 4.8924
C 2.5169 -1.1163 5.0956
C 0.7268 -0.0137 3.8169
N -0.5854 -0.0123 3.8537
N -1.044 0.0053 2.5595
C 0.0 0.0 1.7595
N 1.1616 -0.0 2.5001
C 2.5236 0.125 2.0037
C 3.1004 -1.189 1.4839
S 0.0 0.0 0.0
H 5.1471 -3.6937 7.0082
H 5.5405 -2.0166 6.5651
H 4.6048 -3.0381 5.4508
H 2.6921 -3.1 7.0989
H 3.6341 -2.1535 8.2509
H 3.6639 -0.2242 6.6768
H 1.7421 -0.0817 8.2059
H 0.9043 -1.3794 7.3227
H -0.0534 0.4808 6.153
H 1.3933 1.4951 6.3968
H 3.3934 -1.0502 4.4341
H 2.0172 -2.0856 4.8931
H 2.5167 0.8811 1.2025
H 3.1221 0.5331 2.831
H 3.1217 -1.9547 2.2737
H 2.494 -1.5737 0.6502
H 4.1283 -1.0361 1.1201
Au -2.3157 0.0439 -0.1826
28
Energy=0.2535330383781002
Br 3.9627 -0.0875 9.048
C 2.9509 -0.0559 7.4423
C 3.0726 -1.1143 6.5386
C 2.3153 -1.0643 5.3739
F 2.4175 -2.0778 4.5036
C 1.4508 -0.0067 5.059
C 1.3741 1.0288 6.0031
C 2.1037 1.0243 7.1895
F 0.5852 2.0698 5.7503
C 0.6241 -0.0008 3.8433
N -0.6875 0.0007 3.8226
N -1.0833 -0.0007 2.522
C -0.0 -0.0 1.7587
N 1.1227 -0.0 2.5499
C 2.5386 0.0697 2.1506
C 2.9526 -1.1738 1.3648
C 2.8354 1.3828 1.4255
S 0.0 0.0 0.0
H 3.7249 -1.9662 6.7264
H 2.0048 1.8567 7.8851
H 3.0928 0.0763 3.0996
H 2.7486 -2.0817 1.9488
H 4.0303 -1.133 1.1454
H 2.4101 -1.2418 0.4099
H 2.5451 2.2439 2.046
H 3.9124 1.4547 1.2113
H 2.2894 1.4463 0.4724
Au -2.3195 0.0128 -0.187
33
Energy=2.7514282458436163
Cl 4.9627 5.2883 8.9937
C 4.2228 3.7561 9.3793
C 5.0029 2.719 9.8988
C 4.3919 1.5075 10.2003
C 3.0233 1.2773 9.9691
C 2.2664 2.3582 9.4821
C 2.8536 3.5887 9.1802
Cl 0.5358 2.2304 9.2797
C 2.491 -0.0527 10.3355
N 1.6856 -0.8788 9.7705
N 1.1628 -0.6851 8.5339
C 1.7921 -0.1443 7.4211
O 2.9381 0.2663 7.4424
C 0.9535 -0.142 6.1802
C -0.4662 -0.1568 6.2188
C -1.2268 -0.1323 5.0577
C -0.5543 -0.0871 3.8242
C 0.8728 -0.0543 3.8009
C 1.6402 -0.0752 4.9642
N 1.1902 0.0 2.4632
C 0.0 -0.0 1.7548
N -1.0534 -0.0516 2.5436
S 0.0 0.0 0.0
H 6.0705 2.8681 10.0625
H 4.9947 0.6911 10.605
H 2.2422 4.4071 8.8024
H 2.861 -0.4242 11.3016
H 0.4005 -1.3269 8.347
H -0.9731 -0.1441 7.1852
H -2.3174 -0.1318 5.0863
H 2.7301 -0.0363 4.9666
H 2.1112 0.0345 2.0447
Au -0.1064 2.2635 -0.4505
19
Energy=1.0072630938260312
C 2.825 1.1855 1.1735
O 2.438 0.0694 1.9752
C 1.2077 -0.0 2.516
C -0.0 -0.0 1.7766
S 0.0 0.0 0.0
C -1.2163 -0.1674 2.4663
C -1.2636 -0.3443 3.8439
C -0.0644 -0.3627 4.5525
C 1.1656 -0.1726 3.9162
C 2.4122 -0.1605 4.7341
O 2.7879 -1.0087 5.4698
Cl 3.3191 1.4031 4.5898
F -0.0936 -0.5209 5.8751
H 2.2333 2.0771 1.4297
H 2.7042 0.9601 0.1054
H 3.8805 1.3801 1.4079
Au -0.5009 2.1862 -0.5458
H -2.1392 -0.1744 1.884
H -2.204 -0.4805 4.379
40
Energy=1.8627909780617826
S 0.0 0.0 0.0
C 0.0 0.0 1.7829
N 1.1746 0.0 2.3137
C 1.3071 -0.0957 3.6812
C 2.597 -0.1551 4.2511
C 2.7454 -0.2204 5.6291
C 1.6197 -0.2243 6.4764
C 0.3442 -0.1657 5.9316
C 0.1816 -0.1052 4.5371
C -1.1628 -0.0683 3.9567
O -2.2044 -0.0616 4.5827
N -1.1796 -0.0753 2.5311
C -2.4718 -0.1823 1.9233
C -3.3324 0.9248 1.9158
C -4.5511 0.8507 1.2461
C -4.9324 -0.3376 0.5893
C -4.0795 -1.4509 0.6475
C -2.8578 -1.3758 1.3144
C -6.2111 -0.3676 -0.1304
N -6.9985 0.6578 -0.2482
C -8.1305 0.3628 -0.9735
C -8.2091 -0.9782 -1.4406
S -6.7904 -1.8541 -0.9219
C -9.2999 -1.4274 -2.1919
C -10.3188 -0.5194 -2.4751
C -10.2545 0.8117 -2.0192
C -9.1708 1.2596 -1.2721
Au -1.786 1.3372 -0.6292
H 3.4553 -0.1438 3.5776
H 3.7475 -0.2665 6.0627
H 1.7527 -0.2732 7.5593
H -0.5507 -0.1681 6.5564
H -3.035 1.8375 2.4335
H -5.2328 1.7012 1.2187
H -4.361 -2.3846 0.1562
H -2.1817 -2.2308 1.3332
H -9.3541 -2.4582 -2.5467
H -11.1809 -0.8476 -3.0602
H -11.0689 1.4997 -2.2568
H -9.1058 2.2871 -0.9105
33
Energy=1.350521594151919
S 0.0 0.0 0.0
C 0.0 0.0 1.7686
N 1.0871 0.0 2.4858
C 0.9289 0.0129 3.8295
S 2.2955 0.0119 4.9314
C 1.2099 0.0603 6.297
C 1.4173 0.0124 7.7835
C -0.0103 0.3664 8.2995
C -1.0026 0.0413 7.1456
C -0.1092 0.0707 5.9362
C -0.2906 0.044 4.5197
C -1.5124 0.0431 3.7551
O -2.6639 0.0771 4.1475
N -1.2562 0.0227 2.3428
N -2.3598 -0.085 1.5214
C -2.8715 -1.3879 1.3572
O -2.2652 -2.3695 1.7223
C -4.1659 -1.433 0.6571
C -4.8492 -0.4512 -0.0336
C -6.0724 -0.9105 -0.5907
C -6.2862 -2.2428 -0.3106
Br -7.7665 -3.2687 -0.8378
S -5.0117 -2.9539 0.6198
Au 2.288 -0.0214 -0.3313
H 1.732 -0.9978 8.1042
H 2.1824 0.7152 8.15
H -0.2578 -0.1589 9.2334
H -0.0504 1.4464 8.5115
H -1.457 -0.9591 7.2589
H -1.8376 0.7547 7.0827
H -3.0518 0.6354 1.718
H -4.473 0.5642 -0.1641
H -6.7609 -0.2998 -1.1736
20
Energy=0.890929852793731
O 2.7132 1.0307 5.4097
C 2.5785 -0.1096 4.5798
C 1.2354 -0.0751 3.883
C 1.2115 0.0 2.4886
C -0.0 0.0 1.7847
S 0.0 0.0 0.0
C -1.204 -0.0851 2.4948
C -1.1848 -0.1492 3.8886
C 0.0244 -0.1336 4.6076
C 0.0594 -0.2017 6.1201
F -0.6951 0.7854 6.6698
F -0.44 -1.3947 6.5534
Br -2.877 -0.2784 4.7576
H 3.5522 0.9654 5.8846
H 3.3694 -0.1445 3.8088
H 2.6621 -1.0467 5.1667
H 2.1473 0.0619 1.9309
Au -0.2653 2.234 -0.4899
H -2.153 -0.0983 1.9592
H 1.0769 -0.0882 6.512
32
Energy=-0.4995292591473145
C -4.7183 2.5282 0.2188
O -4.1341 1.2979 0.5508
C -2.9679 1.418 1.3197
C -2.4825 0.0056 1.6236
N -1.2349 0.0063 2.3908
C -0.0 -0.0 1.7787
S 0.0 0.0 0.0
N 1.1316 -0.0 2.4345
C 1.0516 0.0117 3.7819
C -0.1322 0.0427 4.5246
C -1.3898 0.0571 3.8178
O -2.5047 0.1068 4.3096
C 0.1145 0.078 5.9315
C -0.722 0.0599 7.181
C 0.3229 0.3909 8.2858
C 1.7247 0.0306 7.7071
C 1.4487 0.0689 6.2315
S 2.4716 0.015 4.817
H -5.6197 2.3236 -0.3767
H -4.0343 3.1627 -0.381
H -5.012 3.1031 1.1203
H -3.1646 1.9497 2.2719
H -2.1833 1.9795 0.7717
H -2.3352 -0.5509 0.6882
H -3.238 -0.5093 2.2286
Au 2.2905 -0.0498 -0.3256
H -1.5574 0.7748 7.1495
H -1.1741 -0.9379 7.3236
H 0.118 -0.127 9.2341
H 0.2945 1.4724 8.4916
H 2.0528 -0.9777 8.0209
H 2.5069 0.7348 8.033
25
Energy=2.317809078510888
C 3.0906 1.2491 1.3793
C 2.5372 -0.1095 1.8312
C 1.204 -0.0 2.5316
C -0.0 -0.0 1.7888
S 0.0 0.0 0.0
C -1.2581 0.0912 2.4111
C -1.3557 0.1813 3.8009
C -0.1812 0.1721 4.5601
C 1.0735 0.0974 3.9455
C 2.2938 0.1701 4.7995
O 3.3701 0.5669 4.4872
Cl 2.0571 -0.4477 6.4981
O -2.517 0.2762 4.4884
C -3.7326 0.2845 3.772
H 4.0543 1.1172 0.863
H 2.3947 1.7394 0.6819
H 3.2543 1.9091 2.2427
H 3.2694 -0.5955 2.4879
H 2.4087 -0.7541 0.9503
Au 0.0922 -2.2453 -0.5142
H -2.1422 0.0875 1.7764
H -0.2631 0.2342 5.6435
H -3.8726 -0.6466 3.1943
H -4.5339 0.3671 4.5175
H -3.7933 1.1441 3.081
32
Energy=3.073196741847753
Cl 0.1207 0.4331 10.7537
C -0.3154 0.3626 9.0662
C -1.1406 -0.6662 8.6047
C -1.4741 -0.7022 7.2546
C -0.9899 0.2448 6.3309
C -0.189 1.2877 6.8444
C 0.153 1.3473 8.1967
Cl 0.3431 2.6053 5.8325
C -1.3944 0.1212 4.9241
C -0.5894 0.1036 3.8366
N -1.049 0.0396 2.5199
C 0.0 -0.0 1.7501
N 1.2138 -0.0 2.4447
C 0.9124 0.0681 3.8276
O 1.7205 0.058 4.7231
C 2.5313 -0.0414 1.9154
C 2.8902 -1.0208 0.9807
C 4.1873 -1.0411 0.4645
C 5.1328 -0.1091 0.8996
C 4.7757 0.8494 1.853
C 3.4767 0.8913 2.3598
S 0.0 0.0 0.0
H -1.5117 -1.4222 9.297
H -2.1164 -1.505 6.8848
H 0.7728 2.1631 8.5661
H -2.4638 -0.0098 4.7267
H 2.1567 -1.764 0.6653
H 4.4616 -1.8 -0.2717
H 6.1493 -0.1329 0.5007
H 5.5125 1.5765 2.2017
H 3.1897 1.635 3.1032
Au -2.2979 0.181 -0.2625
24
Energy=1.060924630355975
C -3.8175 -1.1754 6.1652
C -2.6676 -1.4188 5.214
O -2.2562 -0.1494 4.6837
C -1.1045 -0.1328 3.9593
C 0.1551 -0.1196 4.5848
Br 0.2703 -0.1116 6.4825
C 1.3246 -0.0616 3.8258
C 1.2444 0.0 2.4374
C 0.0 0.0 1.7856
C -1.1825 -0.081 2.5552
C -2.5544 -0.0665 1.9113
C -3.0194 1.2976 1.6365
N -3.3458 2.3827 1.387
S 0.0 0.0 0.0
H -4.1809 -2.1297 6.5762
H -3.4924 -0.5336 6.9975
H -4.6518 -0.6758 5.6494
H -1.8202 -1.8979 5.731
H -2.9658 -2.0794 4.3778
H 2.2936 -0.0439 4.3264
H 2.1536 0.0671 1.8383
H -2.5111 -0.5974 0.947
H -3.2938 -0.5549 2.5588
Au -0.9378 2.0711 -0.4559
22
Energy=-1.100741787317626
O 2.4112 -3.3843 1.6986
C 1.2358 -3.4094 2.3856
O 0.4045 -4.2349 2.1375
C 1.0884 -2.3512 3.4824
C 1.8699 -1.0777 3.2483
C 3.1746 -0.9957 3.7723
C 3.9844 0.117 3.5479
C 3.4877 1.1826 2.7925
C 2.1974 1.1165 2.2728
C 1.3715 -0.0 2.4813
C -0.0 -0.0 1.8546
S 0.0 0.0 0.0
H 2.9419 -2.6199 1.9886
H 1.4373 -2.8323 4.4117
H 0.0116 -2.188 3.6075
H 3.5525 -1.8218 4.3824
H 4.9914 0.1558 3.9689
H 4.106 2.0642 2.6088
H 1.8142 1.9378 1.6627
H -0.6288 -0.8207 2.2167
H -0.5209 0.9409 2.0974
Au 1.1141 -1.9685 -0.3929
54
Energy=1.6804101334177652
C -4.2639 -0.0035 8.9906
C -2.9145 -0.0035 8.3569
C -2.5363 -0.0027 7.0423
C -1.0916 -0.0021 6.9891
C -0.1612 -0.0013 5.912
C -0.226 -0.0007 4.5346
C 1.1021 -0.0001 3.8364
O 2.1571 0.0001 4.4497
N 1.1063 -0.0 2.4424
C 0.0 0.0 1.7755
S 0.0 0.0 0.0
N -1.2633 -0.0001 2.3349
C -1.4579 -0.0006 3.7462
O -2.6017 -0.0008 4.1637
C -2.4371 0.0001 1.5033
C -3.0088 1.2101 1.1044
C -4.143 1.2049 0.2946
C -4.7276 0.0003 -0.1263
C -5.9327 0.0002 -1.0314
C -4.145 -1.2044 0.2971
C -3.0108 -1.2098 1.1068
C -0.6407 -0.0025 8.3323
C 0.7332 -0.0028 8.9106
N -1.7444 -0.0034 9.1351
C -1.7209 -0.0038 10.5625
C -1.7057 1.2053 11.2637
C -1.6899 1.1995 12.6588
C -1.688 -0.0045 13.3801
C -1.6376 -0.0049 14.8864
C -1.7086 -1.2081 12.6584
C -1.7242 -1.2132 11.2633
H -5.0355 -0.002 8.209
H -4.4196 0.8815 9.6302
H -4.421 -0.89 9.6279
H -3.1863 -0.0023 6.1758
H 0.8865 -0.0011 6.2303
Au 2.3094 -0.0008 -0.2477
H -2.5573 2.1484 1.4309
H -4.5855 2.1551 -0.0156
H -6.5605 -0.8886 -0.8676
H -6.5545 0.8947 -0.8759
H -5.6271 -0.0058 -2.0922
H -4.589 -2.1545 -0.0112
H -2.5607 -2.1481 1.4352
H 0.9009 0.8833 9.5446
H 1.4945 -0.0057 8.1215
H 0.8983 -0.8864 9.5489
H -1.7103 2.1448 10.7075
H -1.6812 2.1499 13.1987
H -2.1259 0.8869 15.3068
H -2.1267 -0.8963 15.3065
H -0.5931 -0.0053 15.2436
H -1.7144 -2.1587 13.198
H -1.7427 -2.1523 10.7067
19
Energy=0.6035317272170275
N -2.455 -0.017 1.7068
C -1.3032 -0.0043 2.4412
N -1.3809 -0.0265 3.7492
C -0.2311 -0.049 4.4772
C -0.2762 -0.0806 5.8925
C 0.8959 -0.0891 6.6264
C 2.1537 -0.0652 5.9785
C 2.2261 -0.0335 4.5981
C 1.0408 -0.0266 3.8253
N 1.1059 0.0 2.4617
C 0.0 -0.0 1.772
S 0.0 0.0 0.0
H -2.4321 0.3018 0.746
H -3.3123 0.1266 2.2282
H -1.2569 -0.0968 6.3714
H 0.853 -0.114 7.718
H 3.0694 -0.0723 6.5741
H 3.1822 -0.0164 4.0713
Au 2.2721 0.2441 -0.3622
39
Energy=-1.2554250248187386
S 0.0 0.0 0.0
C 0.0 0.0 1.8434
C 1.3823 0.0 2.5
C 1.2982 0.2517 4.0142
C 1.4288 1.7313 4.4429
C 0.7051 2.0215 5.7669
C -0.7321 2.3181 5.3113
C -0.546 3.113 4.0089
N 0.7783 2.6926 3.5345
C 1.5105 3.3917 2.6281
O 2.688 3.1974 2.3797
O 0.742 4.3398 2.0271
C 1.3059 5.2796 1.0728
C 2.3916 6.1276 1.7411
C 1.8684 4.5388 -0.1474
C 0.1068 6.1364 0.6744
Au 0.7765 2.1312 -0.3411
H -0.5482 -0.9174 2.1188
H -0.6022 0.8463 2.2013
H 1.8681 -0.967 2.296
H 2.0207 0.7644 2.0319
H 2.0951 -0.2992 4.5397
H 0.3488 -0.1638 4.396
H 2.4954 1.9909 4.4762
H 1.1437 2.9114 6.2471
H 0.7719 1.1852 6.4781
H -1.3191 2.8745 6.056
H -1.2672 1.3774 5.1084
H -1.3272 2.9008 3.2621
H -0.5523 4.2004 4.1853
H 1.9832 6.6109 2.6415
H 2.7294 6.9163 1.0518
H 3.2508 5.5093 2.0282
H 1.0158 4.0505 -0.7098
H 2.6647 3.8427 0.1423
H 2.2722 5.2442 -0.889
H -0.687 5.5083 0.2432
H 0.4052 6.8907 -0.0689
H -0.302 6.6535 1.5545
28
Energy=1.79624630942571
C 3.2587 0.5848 11.5952
O 3.7272 0.7792 10.2754
C 2.8809 0.622 9.2422
C 3.4203 0.8371 7.9573
C 2.6383 0.6911 6.8269
C 1.269 0.3307 6.9248
C 0.3227 0.1702 5.8442
C 0.3306 0.102 4.4721
C 1.4363 0.0488 3.5376
O 2.691 0.0106 3.9962
N 1.2874 0.0 2.2475
C -0.0 -0.0 1.762
S 0.0 0.0 0.0
N -1.1074 -0.0085 2.4438
C -1.0461 0.0104 3.8296
O -2.0565 -0.0301 4.5098
C 0.7451 0.1471 8.2275
C 1.5249 0.2739 9.3706
H 2.4531 1.2959 11.8476
H 2.8908 -0.4446 11.7466
H 4.1153 0.7619 12.2578
H 4.4712 1.1223 7.884
H 3.0774 0.8631 5.8498
H -0.7117 0.0852 6.2012
H 3.2556 -0.0583 3.2048
Au -2.2859 0.002 -0.3408
H -0.3114 -0.1091 8.3355
H 1.0736 0.1116 10.3485
36
Energy=0.9067915542011917
C 3.4951 -0.3075 8.9248
C 2.7748 -0.2301 7.6039
C 1.4477 -0.6786 7.4831
C 0.7777 -0.6307 6.2667
C 1.4148 -0.1282 5.1141
C 2.7355 0.3355 5.2303
C 3.3979 0.2797 6.458
C 0.6315 -0.0883 3.8753
N -0.6789 -0.1276 3.8223
N -1.07 -0.0788 2.5172
C 0.0 0.0 1.7532
S 0.0 0.0 0.0
N 1.1302 0.0 2.5707
N 2.4551 -0.0677 2.2932
C 2.9075 0.2889 1.1481
C 4.3406 0.1748 0.8671
C 5.2235 -0.3939 1.8004
C 6.5822 -0.4782 1.5198
Br 7.7698 -1.2447 2.7952
C 7.094 -0.0088 0.3044
C 6.2158 0.5485 -0.6207
Br 6.8722 1.1996 -2.2922
C 4.8352 0.6548 -0.3671
O 3.9684 1.1942 -1.2409
H 4.468 0.2038 8.8862
H 2.9004 0.1494 9.7324
H 3.6785 -1.3561 9.2152
H 0.933 -1.0758 8.3624
H -0.2526 -0.9786 6.1818
H 3.2465 0.7489 4.3636
H 4.4251 0.6482 6.5246
Au -2.28 -0.4345 -0.1949
H 2.2757 0.7008 0.3507
H 4.8164 -0.7662 2.7403
H 8.1582 -0.0781 0.0808
H 4.4476 1.4728 -2.0397
24
Energy=1.709364333353555
C 5.9917 -0.0065 5.2113
C 4.7061 -0.0011 5.9992
C 4.7332 0.0054 7.405
C 3.5476 0.0096 8.1406
C 2.3174 0.0076 7.4862
C 2.2535 0.0017 6.0782
C 0.9367 0.0008 5.4577
C 0.5567 -0.0001 4.1605
S 1.5284 0.0 2.6909
C 0.0 -0.0 1.7459
S 0.0 0.0 0.0
N -1.1053 -0.0002 2.3929
C -0.9176 -0.0003 3.7895
O -1.8096 -0.0005 4.6019
C 3.4662 -0.0028 5.3568
H 6.6058 0.8784 5.4461
H 5.8018 -0.0085 4.1283
H 6.6007 -0.8939 5.4501
H 5.6957 0.0069 7.9241
H 3.5832 0.0144 9.2325
H 1.3888 0.0109 8.0616
H 0.0842 0.0015 6.1461
Au 2.2507 0.0019 -0.5109
H 3.4513 -0.0083 4.2663
24
Energy=4.284530181149751
F 7.6244 -0.5532 6.5979
C 6.7404 0.0664 7.399
F 7.1607 1.3386 7.5376
F 6.8181 -0.5069 8.612
C 5.3423 0.0069 6.8401
C 5.1423 -0.0047 5.4547
C 3.8527 -0.0065 4.9334
C 2.7273 0.0025 5.7843
C 1.3476 0.0011 5.3195
C 0.8234 -0.0 4.0741
S 1.626 0.0 2.5079
C 0.0 0.0 1.7348
S 0.0 0.0 0.0
N -1.0263 0.0001 2.5111
C -0.6827 -0.0 3.8737
O -1.4782 -0.0001 4.7823
C 2.9525 0.0097 7.1778
C 4.2406 0.0117 7.7024
H 6.002 -0.0191 4.7831
H 3.7289 -0.0189 3.8509
H 0.578 0.0022 6.0996
Au -2.2986 0.0022 -0.3143
H 2.094 0.0112 7.853
H 4.395 0.0106 8.7823
22
Energy=2.704869191143345
C 3.8823 -1.6294 2.9315
C 3.6088 -0.2129 2.4531
O 2.3366 -0.0986 1.8156
C 1.2061 -0.0 2.5216
C 1.1515 0.0786 3.9241
C -0.073 0.1668 4.5701
C -1.2896 0.1634 3.8659
C -1.2191 0.0699 2.4574
C -0.0 -0.0 1.7676
S 0.0 0.0 0.0
F -2.3342 0.0451 1.7479
C -2.6082 0.2503 4.5269
O -3.6784 0.2812 4.0149
Cl -2.5161 0.3119 6.3601
H 4.8956 -1.6936 3.3579
H 3.8149 -2.3348 2.0895
H 3.1652 -1.9464 3.7032
H 3.6911 0.5224 3.2709
H 4.3283 0.0794 1.6754
H 2.0635 0.0764 4.518
H -0.1058 0.2368 5.6561
Au 0.8766 -2.078 -0.4851
26
Energy=-0.4710556981045529
N -2.7512 -0.051 7.0468
C -2.7533 0.0427 5.8926
C -2.7376 0.1614 4.4354
C -1.3539 0.0814 3.808
C -0.1862 0.0339 4.5684
C 1.0862 -0.0189 3.9764
C 2.2807 -0.1767 4.8943
C 2.5876 -1.6545 5.1818
C 1.184 -0.0 2.5703
C 0.0 0.0 1.7925
C -1.253 0.0442 2.4153
S 0.0 0.0 0.0
C 2.5189 -0.0202 1.8665
F 3.3828 0.902 2.3798
F 3.1191 -1.2479 1.9981
H -3.2138 1.1203 4.1666
H -3.3847 -0.6284 4.0184
H -0.255 0.0293 5.6587
H 3.1655 0.3071 4.4667
H 2.0596 0.3405 5.8417
H 3.4362 -1.7457 5.8776
H 2.8458 -2.1811 4.2522
H 1.72 -2.1606 5.6343
H -2.1492 0.0394 1.7917
Au 0.6249 -2.1696 -0.4788
H 2.4094 0.1861 0.7942
19
Energy=1.2069354804849963
O -1.0836 0.7365 6.6235
C -0.0719 0.0277 6.0855
O 0.6658 -0.6654 6.7395
C -0.0277 0.1406 4.5945
C -1.2235 0.1718 3.8689
C -1.2156 0.0968 2.4757
C 0.0 0.0 1.7833
S 0.0 0.0 0.0
C 1.2042 0.0 2.5077
C 1.1997 0.0768 3.9007
C 2.5023 0.2438 4.623
O 3.4791 -0.5195 4.096
O 2.6856 1.0172 5.5276
H -1.0632 0.5617 7.5802
H -2.1696 0.227 4.4089
H -2.1519 0.1009 1.9153
Au 0.5117 -2.1889 -0.4966
H 2.1534 -0.0456 1.9738
H 4.2906 -0.3051 4.5879
22
Energy=0.13741828513467005
C 3.0358 -1.2918 1.21
C 2.561 0.074 1.7259
C 1.2447 0.0 2.4589
C 1.247 -0.1047 3.8549
C 0.064 -0.1863 4.5752
C -1.1848 -0.1735 3.9311
C -1.2061 -0.0772 2.5233
C -0.0 0.0 1.7786
S 0.0 0.0 0.0
Cl -2.712 0.013 1.6681
C -2.4207 -0.2906 4.766
O -3.5388 -0.5249 4.3816
O -2.1501 -0.1156 6.0831
H 3.1436 -2.0129 2.0356
H 4.0104 -1.1994 0.7057
H 2.3181 -1.7074 0.4866
H 3.3175 0.4875 2.412
H 2.4654 0.7678 0.8775
H 2.2023 -0.1123 4.3848
H 0.0868 -0.2613 5.6612
Au -0.8737 2.0765 -0.5086
H -2.9969 -0.2374 6.5436
47
Energy=1.2764087885133002
S 0.0 0.0 0.0
C 0.0 0.0 1.7766
N -1.1308 -0.0032 2.4082
C -1.1872 -0.0018 3.7984
O -2.268 -0.0364 4.3638
C 0.112 0.0537 4.5495
C -0.023 0.0845 5.9248
C 0.813 0.1381 7.0889
C 2.2297 0.1843 7.139
C 2.9216 0.2199 8.3365
C 4.4308 0.2456 8.3622
C 4.919 1.049 9.565
C 4.3365 0.4635 10.8432
N 2.8913 0.2872 10.7683
C 2.2208 0.168 12.0569
C 0.846 -0.4747 11.9422
C 0.0346 0.236 10.8615
C 0.7872 0.2075 9.5536
C 0.1339 0.1456 8.3376
C 2.2136 0.2392 9.5756
C 1.3634 0.0708 3.7957
O 2.4951 0.1381 4.2582
N 1.2378 -0.0 2.3839
C 2.4957 0.0138 1.615
C 2.9753 1.4084 1.3243
C 3.119 1.9137 0.098
Au -2.3195 -0.0894 -0.1961
H -1.0893 0.0566 6.1793
H 2.7793 0.1828 6.2008
H 4.814 0.6627 7.4193
H 4.8254 -0.7855 8.4315
H 4.5998 2.0999 9.4618
H 6.0176 1.0455 9.6352
H 4.5539 1.1262 11.6988
H 4.8191 -0.5086 11.0697
H 2.1336 1.1688 12.5262
H 2.8658 -0.4324 12.7216
H 0.9573 -1.5402 11.6796
H 0.3436 -0.4285 12.9206
H -0.1451 1.282 11.1735
H -0.9561 -0.2269 10.7378
H -0.9591 0.1092 8.3364
H 3.2342 -0.5108 2.2351
H 2.3401 -0.5579 0.6903
H 3.2131 2.0112 2.2076
H 2.8745 1.328 -0.7935
H 3.4821 2.9328 -0.0604
18
Energy=0.8781897553110524
C -1.0476 -0.4009 6.7263
O 0.1219 -0.3015 5.936
C 0.0182 -0.2058 4.6045
C -1.1963 -0.1897 3.9058
C -1.1859 -0.0959 2.5181
F -2.359 -0.0671 1.8904
C -0.0 0.0 1.7697
C 1.2063 0.0 2.4849
C 1.2363 -0.1098 3.8803
C 2.4832 -0.1179 4.583
N 3.5074 -0.1215 5.1293
S 0.0 0.0 0.0
H -1.6291 -1.3031 6.4711
H -0.7094 -0.4704 7.7673
H -1.6877 0.4903 6.61
H -2.1585 -0.2527 4.4105
H 2.1436 0.0845 1.934
Au -0.854 2.0773 -0.5225
18
Energy=-0.962132830270974
O 3.552 0.3244 2.0445
C 2.5009 -0.1868 1.7504
C 1.2172 -0.0 2.5099
C -0.0 0.0 1.7907
S 0.0 0.0 0.0
C -1.2246 0.1426 2.4632
C -1.2496 0.2742 3.8457
C -0.053 0.2775 4.5684
C 1.1751 0.1494 3.9162
C 2.4319 0.1519 4.7759
F 2.1122 0.0511 6.0844
F 3.1377 1.2777 4.6405
F 3.2293 -0.8898 4.4985
H 2.4028 -0.8501 0.8608
Au -0.5391 -2.182 -0.5028
H -2.1471 0.1577 1.8805
H -2.2016 0.3812 4.37
H -0.0726 0.3754 5.6531
22
Energy=0.3144116096549495
O 4.2678 1.3646 5.5802
C 3.2375 1.3685 4.7152
O 2.7671 2.3735 4.2508
C 2.7998 -0.049 4.3804
C 1.4144 -0.0962 3.7882
C 1.2586 -0.0 2.407
C 0.0 0.0 1.7737
S 0.0 0.0 0.0
C -1.1426 -0.0803 2.597
C -1.0103 -0.1501 3.9853
C 0.2519 -0.163 4.5812
C 0.3475 -0.2492 6.0857
F 1.0651 0.7717 6.5995
F 0.9588 -1.3858 6.4816
F -0.855 -0.2232 6.6766
I -3.1113 -0.0672 1.8131
H 4.5154 2.2939 5.727
H 3.5317 -0.4353 3.6521
H 2.9006 -0.6725 5.2771
H 2.1442 0.0882 1.7753
Au -1.1837 1.9297 -0.4875
H -1.8976 -0.2014 4.6143
32
Energy=-0.7004743959747215
C -1.5159 0.3069 7.5282
C -0.7479 0.2343 6.2307
C 0.6681 0.2419 6.256
C 1.4385 0.1675 5.0954
C 0.7534 0.0776 3.8781
C -0.6626 0.0915 3.8212
C -1.4127 0.1642 5.0038
N -1.0828 0.0425 2.5077
C -0.0 0.0 1.7698
N 1.1736 -0.0 2.5573
C 2.5577 0.0424 2.145
C 3.3925 -1.1687 2.6186
N 3.2026 -2.3569 1.7982
C 2.0753 -3.1105 1.7691
N 2.038 -3.899 0.6876
C 3.2178 -3.6446 0.0084
C 3.9421 -2.6886 0.676
S 0.0 0.0 0.0
H -1.2292 1.1947 8.1159
H -1.3191 -0.5751 8.161
H -2.5999 0.356 7.3509
H 1.1756 0.3146 7.2219
H 2.5285 0.198 5.1542
H -2.5032 0.1734 4.949
H 3.0273 0.9513 2.5599
H 2.5798 0.1213 1.0485
H 4.4597 -0.9085 2.5841
H 3.1463 -1.4186 3.6596
H 1.3176 -3.0626 2.5499
H 3.4594 -4.156 -0.9206
H 4.896 -2.2157 0.459
Au 0.569 -2.2516 -0.1676
31
Energy=4.888249732681904
S 0.0 0.0 0.0
C -0.0 -0.0 1.7374
N -1.0293 0.0 2.5101
C -0.6888 0.0003 3.8754
O -1.4909 0.0005 4.7796
C 0.8122 0.0 4.079
S 1.6207 -0.0 2.513
C 1.3394 -0.002 5.3247
C 2.7153 -0.0035 5.7908
C 3.8462 0.0034 4.9468
C 5.1325 -0.0006 5.4726
C 5.3583 -0.0103 6.8629
C 4.2319 -0.0155 7.707
C 2.9449 -0.0125 7.1837
C 6.7325 -0.0141 7.4161
C 7.7738 -0.6983 6.7618
C 9.0677 -0.703 7.2835
C 9.3507 -0.0216 8.4706
C 8.3273 0.6635 9.1315
C 7.033 0.6663 8.6107
Au -2.2997 -0.0033 -0.3059
H 0.5688 -0.0034 6.1041
H 3.7272 0.0224 3.8633
H 5.9844 0.0308 4.7909
H 4.3698 -0.0487 8.7893
H 2.0869 -0.0268 7.8602
H 7.5602 -1.2557 5.8474
H 9.8585 -1.2492 6.7636
H 10.3641 -0.0245 8.8787
H 8.5397 1.2069 10.0554
H 6.2481 1.2265 9.1228
22
Energy=-0.3031289882555266
C -0.915 0.1603 8.833
C -0.2312 1.3071 8.1101
O -0.361 1.1714 6.6829
C 0.4904 0.35 6.0638
O 1.4243 -0.1962 6.6047
C 0.227 0.2261 4.5909
C 1.3654 0.112 3.781
C 1.2583 -0.0 2.4039
C 0.0 0.0 1.7743
C -1.1575 0.0821 2.5842
C -1.045 0.1802 3.9866
Cl -2.4882 0.181 4.9579
Br -2.8774 0.0278 1.7908
S 0.0 0.0 0.0
H -1.9673 0.0778 8.5219
H -0.4068 -0.7911 8.6188
H -0.8836 0.3292 9.921
H 0.8366 1.3607 8.3685
H -0.7085 2.2701 8.3381
H 2.3416 0.1046 4.2678
H 2.1498 -0.0935 1.7827
Au -1.131 -1.9495 -0.516
25
Energy=0.3580931253439629
C 3.1619 1.4703 4.767
C 2.6976 0.0301 4.5107
C 1.3491 -0.0285 3.832
C 1.2451 -0.0 2.4374
C 0.0 -0.0 1.7912
S 0.0 0.0 0.0
C -1.1975 -0.0395 2.5448
C -1.068 -0.0343 3.9412
C 0.1697 -0.034 4.5849
Cl -2.5134 -0.0196 4.9388
C -2.5571 -0.0919 1.9039
C -3.2717 1.2417 1.8694
O -2.744 2.3246 1.738
O -4.6038 1.1012 1.9421
H 2.4463 2.0063 5.4106
H 4.1464 1.4883 5.2607
H 3.2418 2.0314 3.8226
H 3.4414 -0.4908 3.8861
H 2.6503 -0.5176 5.4662
H 2.1479 0.0343 1.8245
Au -0.7764 2.1517 -0.3514
H 0.2039 -0.0356 5.6756
H -3.2056 -0.8208 2.4068
H -2.4423 -0.4049 0.8525
H -4.9862 1.9927 1.864
23
Energy=3.6284354228498463
O 2.5633 -2.4898 4.4625
N 3.5621 -1.8295 4.2395
O 4.3865 -2.0658 3.3713
C 3.8261 -0.6712 5.1184
C 5.1639 -0.4399 5.44
C 5.4902 0.5444 6.3703
C 4.4704 1.2873 6.9726
C 3.1398 1.0603 6.6257
C 2.7763 0.0912 5.6701
C 1.3582 0.0087 5.2973
C 0.8144 -0.0086 4.0678
S 1.6248 0.0 2.5057
C 0.0 0.0 1.7343
S 0.0 0.0 0.0
N -1.0312 -0.0001 2.5072
C -0.6922 0.0013 3.8688
O -1.4842 0.0161 4.7798
H 5.9273 -1.0548 4.9641
H 6.5351 0.7199 6.6333
H 4.7126 2.053 7.7127
H 2.3488 1.6617 7.0789
H 0.6258 0.0714 6.1103
Au -2.2989 -0.0101 -0.312
34
Energy=1.3680750734465381
F -4.0474 -2.9903 -2.3177
C -3.6574 -2.2224 -1.2973
C -2.7653 -2.743 -0.3618
C -2.3496 -1.9309 0.6903
C -2.8356 -0.6174 0.8094
C -3.762 -0.1316 -0.128
C -4.1647 -0.9253 -1.1963
C -2.4944 0.2401 1.9771
O -3.3069 0.9724 2.4996
N -1.1836 0.1038 2.4961
C 0.0 -0.0 1.7534
S 0.0 0.0 0.0
N 1.0787 -0.0 2.4803
C 0.7023 0.1172 3.8275
O 1.4849 0.1073 4.7548
C -0.7952 0.2572 3.8699
C -1.6829 0.472 4.8749
C -1.5442 0.6169 6.3191
C -0.3416 0.5148 7.0532
C -0.3493 0.6724 8.4381
C -1.5401 0.9321 9.1244
C -2.7398 1.035 8.413
C -2.7397 0.8787 7.03
H -2.4084 -3.7679 -0.4718
H -1.6531 -2.3247 1.4321
H -4.1541 0.8794 -0.0072
H -4.8676 -0.5657 -1.9493
Au 2.3066 0.1846 -0.2362
H -2.7145 0.583 4.5381
H 0.5874 0.3157 6.5226
H 0.5905 0.5907 8.9895
H -1.534 1.0535 10.2104
H -3.676 1.2374 8.9383
H -3.6785 0.96 6.4764
24
Energy=0.9162563526243076
F -4.0862 1.8445 9.1078
C -3.0762 1.4473 8.3211
C -2.5335 2.3487 7.4062
C -1.4801 1.9368 6.5898
C -0.9919 0.6298 6.6943
C -1.5444 -0.2648 7.6128
C -2.5933 0.1465 8.4383
O 0.0848 0.2153 5.9404
C 0.0002 0.1693 4.5779
C -1.2162 0.1668 3.8806
C -1.2078 0.0835 2.4894
C 0.0 -0.0 1.7761
C 1.2115 -0.0 2.4934
C 1.2142 0.0844 3.8808
S 0.0 0.0 0.0
H -2.9353 3.3617 7.3495
H -1.0323 2.6243 5.8702
H -1.1409 -1.2766 7.6747
H -3.0428 -0.5288 9.1682
H -2.1607 0.2246 4.4221
H -2.1504 0.0765 1.9389
H 2.1532 -0.0643 1.9454
H 2.1453 0.0876 4.45
Au -0.0431 -2.2409 -0.5456
24
Energy=4.075320796000332
S 0.0 0.0 0.0
C -0.0 0.0 1.7412
N -1.0419 0.0 2.5041
C -0.7335 0.0 3.8723
O -1.5911 0.0001 4.7337
C 0.7538 -0.0001 4.1135
S 1.5853 0.0 2.5355
C 1.5033 -0.0005 5.2522
C 1.2147 -0.0 6.6778
C -0.0766 0.0023 7.2507
C -0.2664 0.0026 8.6398
C 0.8627 -0.002 9.442
O 0.9483 0.0083 10.799
C 2.3372 -0.0801 11.122
O 3.071 0.0089 9.9055
C 2.1504 -0.0041 8.8937
C 2.3584 -0.0023 7.5347
Au -2.3024 0.0 -0.2913
H 2.5829 -0.0011 5.0615
H -0.9377 0.003 6.5858
H -1.2664 0.0061 9.0748
H 2.6144 0.7537 11.7886
H 2.5393 -1.0502 11.6137
H 3.3699 -0.0011 7.1265
51
Energy=3.5411696141178077
C -2.7193 0.2637 10.2884
C -2.2323 -0.1149 8.9302
C -1.1433 0.3117 8.219
C -1.1968 -0.2777 6.902
C -0.1929 -0.0779 5.9083
C -0.2252 -0.096 4.5317
C 1.101 -0.0011 3.8382
O 2.1492 0.0541 4.4554
N 1.1039 0.0 2.4425
C 0.0 -0.0 1.7731
S 0.0 0.0 0.0
N -1.2659 0.0082 2.3367
C -1.4594 -0.0136 3.748
O -2.5961 0.0824 4.1744
C -2.4437 0.0724 1.5171
C -3.013 -1.1059 1.0291
C -4.1523 -1.0418 0.2252
C -4.7243 0.1931 -0.081
C -4.1556 1.3688 0.4237
C -3.0139 1.312 1.2233
C -4.8121 2.695 0.1349
F -5.2969 2.7434 -1.1189
F -3.9589 3.7214 0.2814
F -5.8499 2.9201 0.9629
C -2.3274 -1.1159 6.8789
C -2.7621 -2.1236 5.8761
N -2.9389 -1.0033 8.1035
C -4.1373 -1.6757 8.4713
C -4.1316 -2.6213 9.5028
C -5.3102 -3.274 9.8631
C -6.4926 -2.9848 9.1755
Cl -7.9673 -3.8037 9.6179
C -6.5073 -2.0491 8.1366
C -5.3273 -1.3918 7.7909
H -3.7558 0.6389 10.2592
H -2.7024 -0.5795 10.9983
H -2.0799 1.0583 10.6963
H -0.3988 1.0262 8.5644
H 0.8086 0.144 6.2971
Au 2.3098 0.0138 -0.2468
H -2.5505 -2.0632 1.2744
H -4.5939 -1.9598 -0.1676
H -5.6099 0.2495 -0.7161
H -2.5595 2.2223 1.6135
H -1.9055 -2.4167 5.253
H -3.5203 -1.7118 5.1924
H -3.1686 -3.0205 6.367
H -3.1963 -2.8539 10.0145
H -5.3163 -4.0129 10.6653
H -7.4392 -1.8351 7.612
H -5.3219 -0.6489 6.9914
15
Energy=0.8803577544167076
F 2.5447 0.0754 4.3744
C 1.3423 0.0811 3.7925
C 1.256 -0.0 2.4094
C -0.0 0.0 1.7759
S 0.0 0.0 0.0
C -1.163 0.0856 2.5769
C -1.0522 0.1667 3.9745
C 0.2052 0.148 4.5899
C -2.2282 0.2574 4.9009
O -2.5084 -0.5342 5.7384
Cl -3.1302 1.8029 4.7388
Br -2.8866 -0.0093 1.7912
H 2.1658 -0.0763 1.8135
Au -1.0466 -1.9994 -0.4982
H 0.2999 0.1928 5.6754
24
Energy=1.066056344748513
C 4.8432 0.266 4.4882
O 3.555 0.349 3.8732
C 2.5159 -0.0079 4.6411
O 2.6161 -0.3767 5.7839
C 1.2206 0.0742 3.8907
C 1.2073 0.0 2.4931
C 0.0 0.0 1.7843
S 0.0 0.0 0.0
C -1.205 0.091 2.4959
C -1.2214 0.168 3.8894
C -0.0001 0.1572 4.5753
N -0.002 0.3072 6.0498
O 0.4056 1.3674 6.4782
O -0.433 -0.6267 6.6924
C -2.5634 0.2341 4.5857
F -2.5395 1.1299 5.6041
F -2.9007 -0.9745 5.0972
H 4.8893 0.9181 5.3725
H 5.0558 -0.7664 4.8031
H 5.5633 0.5939 3.7295
H 2.1531 -0.0666 1.9571
Au -0.1525 -2.246 -0.4857
H -2.1464 0.1055 1.9426
H -3.3534 0.5391 3.8776
15
Energy=0.4633201795500074
Cl -3.4525 1.4817 2.2397
C -2.5192 -0.0623 1.9139
O -2.9968 -0.9265 1.2677
C -1.1763 -0.0224 2.5622
C -1.1034 -0.0041 3.9575
C 0.1361 -0.0365 4.5863
F 0.1908 -0.0493 5.9153
C 1.3153 -0.042 3.8314
C 1.2412 -0.0 2.4393
C -0.0 -0.0 1.7808
S 0.0 0.0 0.0
Br 2.988 -0.0642 4.7131
H -2.0049 0.0231 4.5714
H 2.1575 0.0443 1.8502
Au -1.2161 1.9081 -0.4712
20
Energy=3.309896332750814
O 0.8394 -0.007 11.1297
N 1.4981 -0.0063 10.0975
O 2.7151 -0.0068 10.0142
C 0.7436 -0.0049 8.8757
C -0.615 -0.0041 8.67
C -0.7806 -0.0027 7.2625
C 0.4952 -0.0027 6.7082
C 1.0907 -0.0017 5.403
C 0.5314 -0.0008 4.1641
S 1.5135 0.0 2.6945
C 0.0 -0.0 1.7443
S 0.0 0.0 0.0
N -1.1092 -0.0004 2.3919
C -0.9328 -0.0006 3.7817
O -1.8428 -0.0006 4.5807
O 1.4227 -0.004 7.7234
H -1.3751 -0.0045 9.4456
H -1.6994 -0.0018 6.6872
H 2.1838 -0.0019 5.4581
Au 2.2484 0.0053 -0.5186
28
Energy=0.19122365761015106
C -1.6333 -1.0749 8.5948
C -0.3573 -1.6166 7.9775
O -0.3331 -1.4257 6.5477
C 0.0573 -0.2264 6.0964
O 0.4326 0.6785 6.8013
C 0.0209 -0.1635 4.593
C -1.1877 -0.1588 3.8796
I -3.0692 -0.1997 4.8832
C -1.2111 -0.0784 2.4873
C 0.0 0.0 1.7848
C 1.2113 0.0 2.4908
C 1.2425 -0.0724 3.8861
C 2.5714 -0.1101 4.6092
C 2.9589 -1.5274 5.0553
S 0.0 0.0 0.0
H -1.6409 -1.2885 9.6755
H -2.5188 -1.5425 8.1397
H -1.7001 0.0136 8.4571
H -0.2755 -2.7044 8.1085
H 0.5294 -1.1318 8.4117
H -2.1541 -0.0685 1.9412
H 2.1475 0.0634 1.9331
H 2.5308 0.5579 5.4817
H 3.3471 0.2885 3.9372
H 3.9215 -1.5206 5.59
H 3.0526 -2.2007 4.1887
H 2.2001 -1.9589 5.7258
Au -0.1603 2.2421 -0.499
38
Energy=2.1578953945146147
C 2.5743 2.4797 1.6444
C 3.0838 1.1595 1.1375
C 4.2092 1.0698 0.3087
C 4.6797 -0.1638 -0.1485
C 4.0312 -1.3447 0.2196
C 2.909 -1.2803 1.0448
C 2.4409 -0.0413 1.4866
N 1.2702 0.0 2.327
C 0.0 0.0 1.7726
S 0.0 0.0 0.0
N -1.1064 0.0136 2.441
C -1.1028 0.0389 3.8337
O -2.1478 0.0207 4.4597
C 0.2269 0.1026 4.5197
C 0.2256 0.167 5.8902
C 1.3357 0.2382 6.7851
C 1.1329 0.2977 8.134
C 2.1598 0.372 9.1232
C 2.108 0.4366 10.5048
C 3.4555 0.4939 10.9624
C 4.2354 0.4607 9.8342
O 3.4688 0.3877 8.7268
C 1.4656 0.0914 3.7275
O 2.601 0.155 4.1632
H 3.138 3.3151 1.2066
H 1.5096 2.617 1.3969
H 2.672 2.5355 2.7406
H 4.7249 1.9883 0.0178
H 5.5594 -0.2015 -0.7953
H 4.3969 -2.3116 -0.1323
H 2.3798 -2.1852 1.3485
Au -2.3067 0.0724 -0.26
H -0.7777 0.1611 6.332
H 2.3453 0.2447 6.375
H 0.1111 0.2899 8.5268
H 1.2016 0.4412 11.1061
H 3.8058 0.5521 11.9902
H 5.3103 0.4813 9.6735
39
Energy=2.1365710758237917
C 6.4594 0.919 -1.3858
O 5.79 -0.2324 -0.9187
C 4.6916 -0.0876 -0.1264
C 4.1508 1.1369 0.266
C 3.0172 1.1686 1.0829
C 2.4342 -0.0265 1.4929
C 2.9682 -1.2634 1.1158
C 4.0995 -1.3056 0.2997
N 4.7143 -2.4816 -0.1442
C 4.343 -3.7822 0.1068
O 3.3768 -4.0954 0.7772
C 5.2571 -4.8244 -0.5158
N 1.2678 -0.0 2.3361
C 0.0 -0.0 1.778
S 0.0 0.0 0.0
N -1.0952 0.0056 2.4668
C -1.0103 0.0092 3.8439
C 0.2338 0.0154 4.5186
C 1.4773 0.0157 3.7407
O 2.6033 0.0286 4.1958
C 0.286 0.0209 5.9228
C -0.889 0.0197 6.6615
C -2.1307 0.0135 5.9969
C -2.1956 0.0085 4.6108
H 7.3036 0.5669 -1.9926
H 6.8439 1.5295 -0.5503
H 5.7993 1.5438 -2.0124