22
Energy=0.9682401517790756
C -2.9845 -0.9506 1.3159
O -2.408 0.2775 1.7402
C -1.2385 0.2008 2.4353
C -1.3146 0.4038 3.8293
C -2.6542 0.6413 4.4691
C -0.1305 0.3982 4.5708
C 1.1018 0.2052 3.952
C 1.1857 -0.0 2.5697
C -0.0 -0.0 1.7819
S 0.0 0.0 0.0
C 2.5161 -0.273 1.9622
O 2.7785 -1.0226 1.0793
Cl 3.8654 0.6858 2.7272
H -3.9369 -0.6997 0.8304
H -2.338 -1.4716 0.5928
H -3.1799 -1.6151 2.1765
H -2.5501 0.8381 5.5452
H -3.1649 1.4947 3.9969
H -3.3189 -0.2282 4.3406
H -0.173 0.5539 5.6512
H 2.0174 0.2149 4.5423
Au 0.4519 -2.2032 -0.5273
19
Energy=-0.192925654136611
F -2.3342 0.2106 4.5616
C -1.1836 0.1481 3.8646
C 0.0132 0.1659 4.5714
C 1.2149 0.0892 3.8685
C 1.2384 -0.0 2.4716
C 0.0 -0.0 1.7809
C -1.237 0.0683 2.4703
C -2.5624 0.0228 1.7658
S 0.0 0.0 0.0
C 2.5506 -0.1168 1.7441
H -0.0135 0.2349 5.6602
H 2.1585 0.0948 4.4191
H -3.3873 0.1948 2.4676
H -2.7086 -0.9604 1.2857
H -2.6054 0.7674 0.9583
Au -0.2773 -2.2341 -0.5016
H 2.6007 -1.0583 1.1725
H 3.3921 -0.0926 2.4512
H 2.6832 0.6931 1.0111
52
Energy=1.9149626319592985
Br -4.8957 -2.8392 -0.268
C -4.1373 -1.1903 0.3095
C -4.7307 0.0147 -0.0763
C -4.1686 1.2197 0.3529
C -3.0264 1.224 1.1537
C -2.4442 0.0092 1.5216
C -2.9964 -1.2068 1.1113
N -1.2615 0.0014 2.3388
C 0.0 0.0 1.7734
N 1.1021 0.0 2.4445
C 1.1182 0.0006 3.8414
O 2.1999 0.0243 4.4103
C -0.1879 -0.0277 4.5461
C -0.4194 -0.0685 5.9082
C 0.35 -0.1088 7.1191
C -0.3946 -0.1557 8.3288
C 0.2041 -0.2006 9.5726
C 1.6219 -0.2038 9.6963
C 2.3737 -0.1548 8.4888
C 1.7643 -0.1088 7.2502
N 2.2253 -0.2484 10.925
C 1.4405 0.0056 12.1381
C 2.2787 0.4351 13.3432
C 3.0446 1.7638 13.1742
C 3.6169 2.0338 11.7747
C 4.4464 0.9006 11.1637
C 3.6641 -0.4288 11.0628
C -1.4367 -0.0127 3.7459
O -2.5687 -0.0135 4.1919
S 0.0 0.0 0.0
H -5.6226 0.0076 -0.7041
H -4.6301 2.1641 0.0569
H -2.5775 2.158 1.4936
H -2.5322 -2.1454 1.4129
H -1.4969 -0.0781 6.1087
H -1.4862 -0.1668 8.2718
H -0.4275 -0.2618 10.4567
H 3.4616 -0.1246 8.525
H 2.3624 -0.0586 6.343
H 0.7122 0.8031 11.9153
H 0.8505 -0.891 12.4091
H 1.5876 0.5219 14.1971
H 2.9719 -0.3728 13.6211
H 2.3724 2.6008 13.4283
H 3.8566 1.7932 13.9206
H 2.7878 2.262 11.0845
H 4.2306 2.9487 11.8135
H 4.7728 1.216 10.1592
H 5.3651 0.7285 11.7501
H 4.0275 -1.0335 10.2226
H 3.8419 -1.041 11.9565
Au 2.3105 -0.001 -0.2426
31
Energy=3.06861318611935
O 2.6804 -0.0011 4.0155
C 1.4303 -0.0009 3.5388
N 1.2886 -0.0 2.2468
C -0.0 0.0 1.7621
S 0.0 0.0 0.0
N -1.1091 -0.0 2.4434
C -1.0514 -0.0002 3.8295
O -2.0595 0.0003 4.5149
C 0.3233 -0.0014 4.4643
C 0.3454 -0.0025 5.8393
C 1.3509 -0.0046 6.8356
C 2.742 -0.0076 6.9242
C 3.0737 -0.0092 8.2927
C 1.8743 -0.0072 8.9955
O 0.8494 -0.0045 8.1259
C 1.5632 -0.0074 10.4154
C 2.5947 -0.0113 11.3751
C 2.3025 -0.0114 12.7353
C 0.9672 -0.0075 13.139
F 0.683 -0.0076 14.445
C -0.0764 -0.0036 12.2149
C 0.2247 -0.0036 10.8559
H 3.2584 -0.0005 3.2309
Au -2.2856 -0.0037 -0.3423
H -0.6685 -0.0018 6.2583
H 3.4166 -0.0084 6.0777
H 4.0723 -0.0116 8.7213
H 3.6382 -0.0144 11.0557
H 3.0903 -0.0144 13.4901
H -1.1077 -0.0007 12.5714
H -0.5797 -0.0005 10.1198
25
Energy=-3.492279669884996
S 0.0 0.0 0.0
C -0.0 0.0 1.8437
C 1.4533 0.0 2.3183
C 1.5656 -0.0048 3.8459
C 3.0042 0.0289 4.3583
C 3.865 -1.1942 3.9703
C 4.9675 -1.3069 5.0592
C 4.6181 -0.2398 6.1261
C 3.1358 0.0708 5.8881
Au -2.2231 -0.0194 -0.5434
H -0.5245 -0.8924 2.2152
H -0.5269 0.8908 2.2157
H 1.971 0.8865 1.9119
H 1.9696 -0.8806 1.9009
H 1.0149 0.862 4.2526
H 1.0631 -0.9042 4.2478
H 3.4926 0.9373 3.9569
H 3.2295 -2.0965 3.9748
H 4.2804 -1.1078 2.9553
H 5.9747 -1.1467 4.6456
H 4.9701 -2.3154 5.5011
H 5.2112 0.674 5.9543
H 4.8334 -0.5728 7.1529
H 2.8123 1.03 6.323
H 2.5021 -0.7201 6.3299
54
Energy=5.2441883385024095
C 3.0168 -1.3955 1.3362
C 2.5066 0.0154 1.6112
N 1.2442 -0.0 2.3682
C 0.0 0.0 1.7732
S 0.0 0.0 0.0
N -1.1367 0.016 2.4059
C -1.1948 -0.0689 3.7909
O -2.2487 0.0293 4.3928
C 0.0992 -0.3606 4.4854
C 0.0581 -0.8435 5.7528
C 1.143 -1.4023 6.5462
C 1.2263 -1.2034 7.9127
C 0.2387 -0.3436 8.6512
C 2.3226 -1.7743 8.6504
C 2.545 -1.5852 10.0318
C 3.6295 -2.1306 10.6944
C 3.7972 -1.9357 12.1848
C 5.2607 -2.0622 12.5953
C 5.832 -3.36 12.0424
N 5.696 -3.4264 10.5966
C 6.5533 -4.3777 9.9065
C 6.7375 -3.9906 8.4458
C 5.3825 -3.9078 7.7507
C 4.4011 -3.104 8.5702
C 4.5878 -2.9015 9.961
C 3.277 -2.5478 7.9583
O 3.1314 -2.7929 6.6321
C 2.0983 -2.2972 5.8617
O 2.0428 -2.6695 4.7182
C 1.3627 -0.0967 3.7735
O 2.4427 0.058 4.3069
H 3.987 -1.3514 0.817
H 3.1467 -1.9439 2.281
H 2.3107 -1.9514 0.7008
H 2.3412 0.582 0.6844
H 3.2245 0.57 2.2278
Au -2.318 0.0542 -0.2138
H -0.9455 -0.8432 6.1907
H -0.5955 -0.018 8.0208
H -0.1697 -0.879 9.5223
H 0.7354 0.5631 9.0338
H 1.8376 -0.9892 10.6105
H 3.3869 -0.9584 12.4831
H 3.2053 -2.697 12.7261
H 5.8407 -1.2138 12.1949
H 5.3676 -2.0485 13.6908
H 6.9039 -3.4418 12.283
H 5.3327 -4.2266 12.5258
H 6.1354 -5.4041 9.9767
H 7.5232 -4.3948 10.4276
H 7.3897 -4.7232 7.9466
H 7.2454 -3.0127 8.3997
H 4.9801 -4.9241 7.5865
H 5.4771 -3.4643 6.7492
38
Energy=0.44281564235309184
C 8.0614 -0.7987 7.5075
C 6.7755 -1.1462 6.7604
C 6.5669 -2.6712 6.6445
C 5.0843 -3.0341 6.4294
C 4.3134 -1.8963 5.7609
N 4.3544 -0.6991 6.605
C 5.5603 -0.4871 7.4124
C 3.2746 0.087 6.9093
O 3.293 0.8714 7.8488
C 2.0494 -0.0036 6.0358
C 0.789 0.0362 6.6706
C -0.3705 0.025 5.9124
C -0.2963 0.0052 4.5097
C 0.9615 -0.0004 3.8573
C 2.1295 -0.0106 4.6462
N 1.0839 0.0 2.4787
C -0.0 0.0 1.7712
N -1.2606 -0.0021 2.3224
C -1.5238 0.0003 3.7027
O -2.6664 -0.0014 4.1155
S 0.0 0.0 0.0
H 8.2462 0.2871 7.5109
H 8.9322 -1.2898 7.0449
H 8.0075 -1.1347 8.5567
H 6.852 -0.7307 5.7396
H 6.9356 -3.1626 7.5605
H 7.1856 -3.0576 5.818
H 4.9854 -3.9465 5.8209
H 4.6011 -3.2482 7.3966
H 4.7423 -1.6909 4.7624
H 3.268 -2.1872 5.6035
H 5.4136 -0.8827 8.4361
H 5.706 0.5962 7.5275
H 0.7523 0.0841 7.7597
H -1.359 0.0398 6.3754
H 3.0906 -0.0066 4.1318
H -2.0821 -0.0002 1.7235
Au 2.2889 0.0497 -0.3263
41
Energy=-0.5435504606891441
Cl -2.0159 7.827 -2.8368
C -2.8399 7.3791 -1.3665
C -2.8629 8.2684 -0.2879
C -3.5297 7.9067 0.8814
C -4.1545 6.6601 0.9722
C -4.1229 5.7579 -0.1011
C -3.4751 6.1405 -1.282
C -4.8671 4.4412 -0.0987
O -5.8084 4.2821 -0.8582
N -4.4225 3.4727 0.7587
C -5.1438 2.2095 0.8503
C -4.2237 1.0422 0.5059
N -3.0031 1.1043 1.3003
C -2.2842 2.3652 1.2175
C -3.2122 3.5328 1.561
C -2.5393 -0.0242 1.9096
O -3.1748 -1.0747 1.931
C -1.1817 0.0551 2.5584
C -1.0979 0.0743 3.9541
C 0.1434 0.0969 4.5944
C 1.3146 0.0679 3.833
C 1.243 -0.0 2.4409
C 0.0 0.0 1.7864
S 0.0 0.0 0.0
Cl -4.9931 6.2459 2.4509
H -2.3685 9.2371 -0.3689
H -3.5728 8.5915 1.7293
H -3.4747 5.4647 -2.1379
H -5.9936 2.2573 0.1594
H -5.5251 2.0892 1.8804
H -3.9565 1.0824 -0.5664
H -4.7078 0.08 0.7103
H -1.883 2.4924 0.196
H -1.4353 2.3502 1.9109
H -3.4791 3.4939 2.632
H -2.6886 4.4782 1.3787
H -2.02 0.0787 4.5401
H 0.1947 0.1272 5.685
H 2.2905 0.0757 4.3241
H 2.1531 -0.0624 1.8411
Au -1.4033 -1.7802 -0.4658
18
Energy=0.2756245762561857
O -3.5205 -0.3629 3.8683
N -2.509 -0.3612 4.5492
O -2.4778 -0.4553 5.7645
C -1.2169 -0.235 3.8443
C -1.2169 -0.1096 2.4565
C 0.0 -0.0 1.7748
S 0.0 0.0 0.0
C 1.1929 -0.0 2.5289
C 1.1876 -0.0983 3.9315
C -0.0444 -0.2286 4.5884
C 2.4625 -0.0672 4.7127
O 3.5648 0.1042 4.2582
O 2.2385 -0.2523 6.0307
F 2.3371 0.1211 1.8796
H -2.1608 -0.0989 1.9133
Au 1.1269 1.9399 -0.5253
H -0.0876 -0.3171 5.6712
H 3.1061 -0.2128 6.4668
24
Energy=3.96004453764544
C 1.8381 -0.5704 8.1573
C 2.9581 -0.3085 7.1816
C 4.2835 -0.3298 7.6304
C 5.355 -0.0949 6.7661
C 5.1099 0.1728 5.4174
C 3.7999 0.1948 4.9484
C 2.7051 -0.0467 5.8046
C 1.3291 -0.0312 5.3287
C 0.8106 0.0007 4.0798
S 1.6199 -0.0 2.5132
C -0.0 0.0 1.7373
S 0.0 0.0 0.0
N -1.0306 0.0021 2.5089
C -0.6908 0.0039 3.8736
O -1.4937 0.0039 4.7776
H 2.2361 -0.7584 9.1641
H 1.1467 0.2853 8.2264
H 1.2359 -1.4455 7.8651
H 4.4791 -0.5364 8.6856
H 6.3785 -0.1175 7.1475
H 5.9371 0.3682 4.7316
H 3.6254 0.4272 3.8976
H 0.5409 -0.0571 6.0861
Au -2.2998 0.0065 -0.3053
25
Energy=0.26127892664127433
S 0.0 0.0 0.0
C -0.0 0.0 1.7464
N -1.0929 -0.0076 2.4871
N -0.729 -0.0221 3.8013
C 0.5814 0.0166 3.8511
N 1.1139 0.0 2.5926
N 2.4614 0.1514 2.3779
C 2.9716 -0.3806 1.3243
C 4.3874 -0.2258 1.0021
C 5.2482 0.5315 1.8173
C 6.6072 0.6777 1.5098
C 7.0665 0.0439 0.3643
O 8.3212 0.041 -0.1593
C 8.2869 -0.822 -1.2981
O 6.929 -1.1953 -1.5145
C 6.2178 -0.7079 -0.4556
C 4.8779 -0.8613 -0.1676
Au 0.9089 2.0778 -0.4654
H 1.2053 0.0472 4.7424
H 2.3657 -0.9679 0.6229
H 4.8308 1.0084 2.7048
H 7.2803 1.2636 2.1363
H 8.6722 -0.2846 -2.1804
H 8.8967 -1.7224 -1.0968
H 4.2222 -1.4452 -0.8151
19
Energy=1.661317433937984
C 3.828 -0.0079 3.6268
O 2.6409 -0.1366 4.3867
C 1.4593 -0.1313 3.7532
C 1.2778 -0.0 2.373
C 0.0 -0.0 1.7825
S 0.0 0.0 0.0
C -1.1437 -0.1421 2.6153
C -0.9532 -0.273 4.0057
C 0.3087 -0.2619 4.5598
F 0.4633 -0.3755 5.8796
C -2.516 -0.1186 2.0601
O -2.8789 0.3421 1.0258
Cl -3.7658 -0.9158 3.1328
H 4.6576 -0.0412 4.3437
H 3.8556 0.9513 3.082
H 3.9362 -0.836 2.9055
H 2.1365 0.1094 1.7136
Au -0.8946 2.0574 -0.5427
H -1.8099 -0.3853 4.6681
21
Energy=2.101951799628637
C 3.1209 1.3194 1.5575
C 2.5546 -0.0756 1.8618
C 1.2045 0.0 2.531
C 0.0 0.0 1.7835
S 0.0 0.0 0.0
C -1.2424 0.1021 2.4338
C -1.3251 0.231 3.8163
C -0.1437 0.2635 4.5459
C 1.109 0.1532 3.9308
C 2.3392 0.2034 4.7783
O 3.1542 -0.6477 4.9135
Cl 2.5393 1.806 5.5881
F -0.2023 0.3773 5.8754
H 3.2318 1.9154 2.4768
H 2.4536 1.8661 0.8741
H 4.1099 1.2398 1.0808
H 3.2504 -0.6323 2.5035
H 2.4542 -0.6398 0.9253
Au 0.1607 -2.2383 -0.5319
H -2.1512 0.0811 1.8305
H -2.2804 0.3053 4.3375
21
Energy=0.5247171967174293
C 3.5965 0.3603 2.1313
O 2.3351 -0.2242 1.8216
C 1.2078 0.0 2.5173
C 0.0 0.0 1.7709
S 0.0 0.0 0.0
C -1.2281 0.1061 2.4384
C -1.2873 0.233 3.8229
C -0.1013 0.2262 4.5577
C 1.1466 0.1183 3.9232
O 2.3231 0.0309 4.6391
C 2.8195 1.1417 5.2905
F 2.7395 2.2379 4.498
F 4.1125 0.8844 5.5278
Br -0.2091 0.269 6.4589
H 4.0994 -0.1662 2.9532
H 3.4846 1.4214 2.394
H 4.1919 0.2705 1.2128
Au 1.1324 -1.9388 -0.5314
H -2.1466 0.0879 1.8496
H -2.2448 0.3122 4.3377
H 2.3015 1.3602 6.237
37
Energy=3.002748393517845
C 5.8649 -0.217 9.7983
C 4.4137 -0.0812 9.3437
C 4.2103 1.1227 8.4203
N 2.8301 1.2818 7.9883
C 2.3268 0.8287 6.8169
C 0.9438 1.0757 6.7537
C -0.0099 0.7834 5.7445
C 0.0558 0.3026 4.4484
C -1.1792 0.104 3.6973
O -2.3655 0.0441 4.3236
N -1.2147 -0.0288 2.4066
C 0.0 -0.0 1.7662
S 0.0 0.0 0.0
N 1.186 -0.0 2.2985
C 1.312 0.0613 3.6726
O 2.4069 -0.0466 4.2134
C 0.6045 1.7286 8.0167
C -0.5819 2.2318 8.569
C -0.5439 2.8141 9.8354
C 0.6611 2.9078 10.5576
C 1.8563 2.4205 10.0289
C 1.8065 1.8375 8.76
H 5.9944 -1.0902 10.4551
H 6.5448 -0.3417 8.9396
H 6.196 0.6734 10.3579
H 3.7474 0.0174 10.2168
H 4.0918 -0.9903 8.8085
H 4.83 1.0229 7.517
H 4.522 2.0525 8.9232
H 2.9353 0.3494 6.0549
H -1.0206 1.0512 6.0783
H -2.2268 -0.0659 5.2738
Au -2.2562 -0.0425 -0.4676
H -1.5252 2.177 8.0201
H -1.4629 3.2075 10.2753
H 0.661 3.3705 11.5469
H 2.7896 2.4945 10.5895
36
Energy=-0.5725377266611055
O -6.6465 -0.0229 1.0853
C -5.2345 0.0281 1.159
C -4.8509 1.0016 2.2657
C -3.3353 1.254 2.2745
C -2.5329 -0.0128 1.8927
C -3.3006 -1.2991 2.2232
C -4.6195 -1.3637 1.4293
N -1.193 -0.0012 2.4679
C -0.0 -0.0 1.7647
S 0.0 0.0 0.0
N 1.061 -0.0 2.5403
C 0.5706 -0.0043 3.8356
C -0.8475 -0.0075 3.8182
C -1.6033 -0.0132 4.9962
C -0.9218 -0.0153 6.219
C -1.6827 -0.0216 7.5223
C 0.4935 -0.0122 6.2326
C 1.2476 -0.0069 5.0624
H -6.8914 -0.6379 0.3819
H -4.8223 0.4247 0.2068
H -5.4045 1.9425 2.1308
H -5.1843 0.5758 3.2272
H -3.0719 2.0572 1.5681
H -3.0211 1.6037 3.2679
H -2.376 -0.0047 0.8032
H -2.6642 -2.1683 2.0007
H -3.5066 -1.3313 3.3033
H -4.4639 -1.8923 0.4736
H -5.3657 -1.9398 1.9991
Au 2.3026 0.0399 -0.2406
H -2.6939 -0.0164 4.9809
H -1.4347 -0.9099 8.1272
H -2.7702 -0.0217 7.3569
H -1.4362 0.8618 8.1349
H 1.0065 -0.0144 7.1983
H 2.3389 -0.0049 5.0861
57
Energy=3.4433692609711315
C -6.9221 3.7053 10.2012
C -5.6582 3.0473 9.7102
C -5.7113 2.0343 8.7382
C -4.5535 1.4035 8.2881
C -3.3073 1.7864 8.7983
C -3.2331 2.8 9.7572
C -4.4013 3.4164 10.2098
N -2.1252 1.144 8.3305
C -1.2864 0.3409 9.1197
C -1.5969 0.0313 10.5454
C -0.265 -0.0838 8.3135
C -0.4961 0.4183 6.9793
C -1.6636 1.2051 7.04
C -2.2654 2.1173 6.0339
C 0.3962 0.1951 5.8914
C 0.2078 0.157 4.526
C -1.1031 -0.0031 3.8452
O -2.1536 -0.1648 4.4473
N -1.1024 -0.012 2.4479
C -0.0 0.0 1.7753
N 1.2658 -0.0 2.3288
C 1.4514 0.058 3.7323
O 2.5806 0.0355 4.1833
C 2.4384 -0.0547 1.4934
C 3.038 1.1501 1.1155
C 4.1626 1.1277 0.2981
C 4.6767 -0.0986 -0.1296
C 4.0888 -1.3107 0.251
C 2.9487 -1.2981 1.086
C 2.3029 -2.5899 1.5048
C 4.6633 -2.6197 -0.2241
S 0.0 0.0 0.0
H -6.7047 4.5648 10.8516
H -7.5393 2.9958 10.7778
H -7.5401 4.0604 9.3611
H -6.6791 1.7301 8.3306
H -4.602 0.6104 7.5395
H -2.2579 3.1117 10.1355
H -4.3324 4.2089 10.9594
H -2.609 -0.392 10.6582
H -1.5476 0.9204 11.1953
H -0.8741 -0.7039 10.925
H 0.5483 -0.7425 8.6116
H -3.0404 1.6032 5.4446
H -1.4965 2.4361 5.3163
H -2.6998 3.0062 6.5147
H 1.4358 0.0082 6.1868
H 2.6073 2.0893 1.4655
H 4.6392 2.0615 -0.0076
H 5.5587 -0.1187 -0.7751
H 1.9235 -3.1416 0.6291
H 1.4616 -2.4305 2.1891
H 3.0288 -3.2464 2.0103
H 5.5387 -2.4601 -0.8693
H 3.9221 -3.2028 -0.7958
H 4.9772 -3.2545 0.6214
Au -2.3058 -0.0664 -0.2579
37
Energy=3.5654560120876027
F 2.5467 -2.3212 1.6506
C 3.0701 -1.184 1.1873
C 4.2144 -1.2153 0.3991
C 4.7401 -0.0115 -0.0771
C 4.1281 1.2061 0.2372
C 2.9827 1.2227 1.0335
C 2.4413 0.0248 1.5043
N 1.2703 0.0 2.3269
C -0.0 -0.0 1.7681
S 0.0 0.0 0.0
N -1.1048 0.0132 2.4402
C -1.1024 -0.0307 3.8304
O -2.1323 0.0838 4.4656
C 0.2216 -0.2788 4.5042
C 0.2015 -0.5602 5.8306
C 1.279 -0.933 6.7488
C 1.3147 -0.2192 7.98
C 2.3129 -0.5085 8.8812
O 2.5582 0.0435 10.1059
C 3.7638 -0.5499 10.5795
O 4.0959 -1.6204 9.693
C 3.2473 -1.5192 8.6347
C 3.2096 -2.28 7.4823
C 2.2123 -1.9696 6.5389
Br 2.1256 -3.1067 5.0153
C 1.4681 -0.1262 3.7261
O 2.5894 -0.0717 4.1776
H 4.6743 -2.1782 0.1712
H 5.6385 -0.0276 -0.698
H 4.5459 2.1434 -0.1345
H 2.4884 2.1593 1.2959
Au -2.3068 -0.0361 -0.2641
H -0.7937 -0.4603 6.2819
H 0.5803 0.5607 8.1842
H 4.5782 0.1991 10.5743
H 3.6098 -0.947 11.5958
H 3.9155 -3.0913 7.3116
31
Energy=-0.35328738174481167
C -4.8857 4.5744 0.8609
C -4.2482 3.4717 1.6442
S -3.9469 1.9239 0.8489
C -3.2317 1.2249 2.3194
C -3.3066 2.1295 3.331
C -3.8827 3.4061 2.9645
C -4.0406 4.509 3.9704
C -2.5612 -0.1312 2.3258
N -1.1318 -0.0657 2.6027
C 0.0 0.0 1.7648
S 0.0 0.0 0.0
N 1.1242 0.0 2.449
C 0.7692 -0.0584 3.7769
C -0.6447 -0.0787 3.8979
N -1.3541 -0.1022 5.0162
C -0.6198 -0.1264 6.1389
C 0.7867 -0.118 6.1565
C 1.5125 -0.0815 4.9603
H -5.0198 5.464 1.4907
H -5.8772 4.2825 0.477
H -4.2688 4.8663 -0.0048
H -2.9311 1.8975 4.3297
H -4.7178 4.2005 4.7839
H -4.4422 5.4293 3.5266
H -3.0699 4.75 4.4336
H -2.9975 -0.7328 3.1372
H -2.718 -0.6638 1.3793
Au -1.7871 1.4769 -0.2753
H -1.176 -0.1501 7.0816
H 1.305 -0.1361 7.1175
H 2.604 -0.0693 4.9424
22
Energy=4.158957776384544
O 2.0558 -0.851 7.9746
C 3.0032 -0.4252 7.1108
C 4.3211 -0.3905 7.5862
C 5.3645 0.0135 6.762
C 5.0925 0.3913 5.4401
Cl 6.3996 0.9066 4.4002
C 3.7926 0.3693 4.9539
C 2.7168 -0.0324 5.7751
C 1.3388 -0.0276 5.3172
C 0.8143 0.0028 4.0718
S 1.6241 0.0 2.5091
C 0.0 -0.0 1.7349
S 0.0 0.0 0.0
N -1.0295 0.002 2.5095
C -0.688 0.0051 3.8709
O -1.4835 0.0009 4.7818
H 1.2078 -0.961 7.5247
H 4.5052 -0.6993 8.6164
H 6.39 0.036 7.1329
H 3.6091 0.7036 3.9335
H 0.545 -0.0371 6.0757
Au -2.2986 0.0093 -0.3142
15
Energy=1.9743830277195613
Cl -2.7728 -0.2147 4.713
C -1.2409 -0.1339 3.8599
C -0.0529 -0.1569 4.5754
C 1.1754 -0.085 3.9102
C 1.1919 -0.0 2.5204
C 0.0 0.0 1.7627
C -1.2568 -0.0475 2.4472
N -2.4254 0.0414 1.7585
S 0.0 0.0 0.0
Br 2.8829 0.1303 1.6631
H -0.0882 -0.2272 5.6635
H 2.1093 -0.0949 4.4712
H -2.3779 -0.1036 0.7551
H -3.2856 -0.169 2.2483
Au -0.5077 2.2105 -0.4863
19
Energy=0.417200834318181
S 0.0 0.0 0.0
C -0.0 0.0 1.8617
C 1.4215 -0.0 2.3014
C 2.2288 -1.0395 2.7541
C 3.4845 -0.4396 2.993
N 3.4639 0.8606 2.7025
N 2.2197 1.1126 2.2739
C 1.8408 2.475 1.9299
C 1.38 3.2774 3.143
Au -2.2187 0.1938 -0.5452
H -0.5017 -0.9024 2.2312
H -0.5441 0.8807 2.2284
H 1.9365 -2.0785 2.8851
H 4.4011 -0.901 3.3593
H 1.0621 2.4207 1.1551
H 2.7289 2.9347 1.4745
H 0.4819 2.8326 3.5998
H 2.174 3.3053 3.9042
H 1.1393 4.3112 2.8499
32
Energy=-0.0695753670951267
C 4.0566 -0.0641 7.6701
C 2.8458 -0.1127 6.7919
N 1.6247 -0.2622 7.3131
N 0.7909 -0.265 6.2704
C 1.4286 -0.1214 5.0728
C 2.7831 -0.0175 5.376
C 0.6425 -0.0999 3.859
N -0.6693 -0.1435 3.8263
N -1.0677 -0.0879 2.5225
C 0.0 0.0 1.7538
N 1.1352 -0.0 2.5641
N 2.4686 -0.019 2.2965
C 2.9008 0.4261 1.1747
C 4.324 0.3804 0.8377
C 5.2634 -0.2512 1.6753
C 6.6111 -0.2625 1.3285
C 7.0401 0.3487 0.1425
C 6.1134 0.9704 -0.6982
C 4.7612 0.9847 -0.3533
S 0.0 0.0 0.0
H 4.7571 -0.8824 7.436
H 3.7549 -0.1562 8.7224
H 4.6058 0.8835 7.5463
H -0.2114 -0.3582 6.3918
H 3.5954 0.1139 4.67
H 2.2309 0.8763 0.4259
H 4.914 -0.7347 2.5888
H 7.3359 -0.7542 1.9814
H 8.0989 0.3348 -0.1267
H 6.4446 1.4443 -1.6248
H 4.0332 1.4699 -1.0089
Au -2.2655 -0.4892 -0.2102
35
Energy=2.3135630226793826
C -1.2815 -0.2915 10.6895
C -1.3126 -0.2481 9.1848
C -2.523 -0.2263 8.4762
C -2.5354 -0.1834 7.0856
C -1.3369 -0.1603 6.3365
C -0.1173 -0.1833 7.0538
C -0.1182 -0.2259 8.4431
C -1.4665 -0.1149 4.8919
C -0.5787 -0.078 3.8548
N -1.0393 -0.0408 2.5301
C -0.0 0.0 1.7549
N 1.2138 -0.0 2.4506
C 0.9169 -0.0679 3.8313
O 1.7574 -0.1054 4.7069
C 2.5274 0.0661 1.9137
C 3.4903 -0.8642 2.3233
C 4.7825 -0.7935 1.8021
C 5.1161 0.192 0.8679
C 4.1534 1.1215 0.4666
C 2.8633 1.0715 0.9977
S 0.0 0.0 0.0
H -0.7741 0.5971 11.1014
H -2.2942 -0.331 11.1162
H -0.725 -1.1724 11.0505
H -3.4686 -0.2433 9.0245
H -3.4917 -0.1667 6.5565
H 0.8232 -0.1674 6.5056
H 0.8388 -0.2428 8.9727
H -2.5029 -0.1056 4.538
H 3.223 -1.6297 3.0513
H 5.5326 -1.5195 2.124
H 6.1274 0.2383 0.4575
H 4.4087 1.9012 -0.2546
H 2.1159 1.8112 0.7079
Au -2.2952 -0.1789 -0.2665
27
Energy=4.512770188549728
S 0.0 0.0 0.0
C -0.0 0.0 1.7372
N -1.0312 0.0053 2.5085
C -0.692 0.0088 3.8731
O -1.4939 0.0112 4.778
C 0.8087 -0.0024 4.0783
S 1.6207 0.0 2.5126
C 1.3353 -0.0628 5.3219
C 2.7244 -0.0874 5.7592
C 3.7495 0.3948 4.9483
C 5.0939 0.3962 5.3706
C 5.429 -0.0867 6.6171
C 4.429 -0.5894 7.492
C 4.768 -1.0896 8.7796
C 3.8009 -1.5855 9.6254
C 2.4484 -1.6053 9.2102
C 2.0879 -1.1285 7.9665
C 3.056 -0.5977 7.0701
Au -2.2997 0.021 -0.3062
H 0.5577 -0.1012 6.0898
H 3.5113 0.8223 3.9735
H 5.8646 0.7916 4.7054
H 6.4691 -0.0872 6.9526
H 5.8174 -1.074 9.0846
H 4.0735 -1.9669 10.6121
H 1.6823 -2.0057 9.8782
H 1.0402 -1.1732 7.6702
34
Energy=2.541793769286756
O 6.2544 -0.1919 4.2457
C 7.1052 0.3975 5.1
O 8.307 0.2965 5.0103
C 6.4049 1.1838 6.16
C 7.1929 1.8479 7.1119
C 6.5843 2.5955 8.1206
C 5.1947 2.6845 8.182
C 4.3962 2.0211 7.2312
C 5.0101 1.2636 6.2148
C 2.9462 2.1083 7.2856
C 2.0447 2.6828 8.1758
C 0.759 2.4014 7.6687
C 0.9369 1.6664 6.4955
C -0.0446 1.1626 5.6031
C 0.0291 0.4868 4.4083
C -1.2045 0.1903 3.6756
O -2.3856 0.1517 4.3121
N -1.2261 -0.0329 2.402
C 0.0 -0.0 1.7632
S 0.0 0.0 0.0
N 1.1772 -0.0 2.3066
C 1.2886 0.0734 3.6871
O 2.3273 -0.171 4.2692
O 2.2699 1.5099 6.289
H 6.7874 -0.6743 3.5922
H 8.2784 1.7626 7.0399
H 7.1953 3.1144 8.8621
H 4.7246 3.277 8.9696
H 4.3971 0.7397 5.4789
H 2.2902 3.2285 9.0828
H -0.1981 2.6947 8.0954
H -1.0456 1.4477 5.9469
H -2.2404 0.0967 5.2663
Au -2.2553 -0.0531 -0.4727
31
Energy=1.683735470026195
F -5.7832 -0.0054 -0.8793
C -4.6949 -0.004 -0.1011
C -4.1492 1.2154 0.2964
C -3.0147 1.2116 1.1058
C -2.4413 -0.0011 1.4985
C -3.0066 -1.2154 1.0987
C -4.1409 -1.2221 0.2891
N -1.2681 0.0001 2.3307
C -0.0 0.0 1.7708
S 0.0 0.0 0.0
N 1.1042 -0.0 2.4413
C 1.1017 0.0002 3.8324
O 2.1494 -0.0005 4.4532
C -0.2326 0.0015 4.5305
C -0.1729 0.0026 5.9031
C -1.1282 0.0041 6.9658
C -2.5227 0.0043 7.0295
C -3.0172 0.0061 8.3527
C -2.0142 0.0072 9.3038
S -0.4551 0.006 8.597
C -1.4641 0.0014 3.7356
O -2.6053 0.0021 4.1605
H -4.6171 2.1451 -0.0305
H -2.5635 2.1494 1.4332
H -2.549 -2.1521 1.4204
H -4.6025 -2.1529 -0.0435
Au 2.3074 0.0002 -0.2634
H 0.8721 0.0024 6.2384
H -3.1275 0.0032 6.1272
H -4.0783 0.0065 8.6045
H -2.1271 0.0086 10.3874
35
Energy=0.9917602834102478
C 1.0327 -0.5067 8.8357
C 1.4892 0.6837 8.0667
N 1.8434 1.7805 8.6324
N 2.2027 2.7075 7.6606
C 2.066 2.217 6.3708
O 2.2514 2.7862 5.322
C 1.6211 0.7435 6.5687
C 0.4049 0.4213 5.7715
C 0.3323 0.17 4.4457
C 1.4547 0.0679 3.5149
O 2.688 0.0099 4.0128
N 1.2995 0.0 2.234
C 0.0 -0.0 1.7548
S 0.0 0.0 0.0
N -1.1067 -0.0167 2.4404
C -1.0446 0.0185 3.8239
O -2.0373 -0.0422 4.5234
C 2.6264 3.9986 8.0685
C 2.7123 4.2865 9.4403
C 3.1283 5.5506 9.8564
C 3.4618 6.5355 8.9228
C 3.3735 6.2406 7.5605
C 2.9586 4.9818 7.1219
H 1.0465 -0.2902 9.912
H 0.01 -0.7949 8.5399
H 1.6815 -1.3751 8.632
H 2.4748 0.1319 6.2323
H -0.5659 0.4715 6.278
H 3.2945 -0.024 3.2513
Au -2.2842 0.0011 -0.3547
H 2.45 3.5152 10.1616
H 3.1911 5.7647 10.9261
H 3.787 7.5239 9.2545
H 3.6295 7.0004 6.8182
H 2.889 4.7568 6.0608
15
Energy=0.5070042747135521
Cl -1.0662 0.8816 7.0452
C 0.3206 0.2924 6.0778
O 1.3544 0.0449 6.619
C 0.1123 0.2033 4.6072
C 1.2847 0.1027 3.8281
C 1.2358 -0.0 2.4475
C -0.0 0.0 1.7688
C -1.1662 0.0978 2.5385
C -1.121 0.1782 3.9333
F -2.2881 0.2235 4.5628
F -2.3694 0.0778 1.9631
S 0.0 0.0 0.0
H 2.2409 0.0999 4.352
H 2.1539 -0.0896 1.865
Au -1.581 -1.58 -0.5602
32
Energy=-0.2625330575939262
S 0.0 0.0 0.0
C 0.0 -0.0 1.8476
C 1.4073 -0.0 2.4997
C 2.1776 1.3187 2.2749
C 2.8437 1.17 0.9016
C 3.1864 -0.3358 0.7832
C 2.3547 -1.0586 1.875
C 1.09 -0.2814 3.9934
N 2.196 -0.0795 4.9275
C 3.0805 -1.0918 5.2138
C 4.1509 -0.9332 6.0311
Br 5.3354 -2.3519 6.3968
C 4.408 0.3619 6.6724
O 5.3253 0.6411 7.4104
N 3.4227 1.3108 6.345
C 2.3139 1.1818 5.5287
O 1.5174 2.0775 5.3452
Au -2.1813 -0.4902 -0.5002
H -0.5318 -0.9042 2.1767
H -0.5606 0.8759 2.2042
H 2.9646 1.4 3.041
H 1.5393 2.208 2.3772
H 3.73 1.8146 0.8007
H 2.1427 1.4682 0.1075
H 2.9505 -0.7181 -0.22
H 4.2608 -0.5099 0.9479
H 1.7915 -1.9184 1.4821
H 3.0344 -1.4461 2.6476
H 0.2854 0.3861 4.3253
H 0.7433 -1.3198 4.1033
H 2.8655 -2.0528 4.7468
H 3.5306 2.2232 6.7815
36
Energy=-0.4424382803646887
S 0.0 0.0 0.0
C -0.0 -0.0 1.7625
N 1.1616 0.0 2.4114
N 1.2202 0.0185 3.7584
C 0.0952 0.051 4.4169
C -1.2155 0.0565 3.7622
N -1.2203 0.0053 2.3911
C -2.5105 0.0356 1.6913
C -2.9693 1.4709 1.3973
C -4.2957 1.4717 0.6792
C -5.4975 1.4307 1.4016
C -6.7259 1.3793 0.7388
C -6.7691 1.3645 -0.6584
C -5.5774 1.4007 -1.3878
C -4.3503 1.4518 -0.7221
N -2.2382 0.1044 4.5655
C -1.6647 0.127 5.8546
C -0.235 0.0954 5.8273
C 0.5125 0.1142 7.0069
C -0.1738 0.1634 8.2221
C -1.5801 0.1939 8.2504
C -2.3392 0.1767 7.076
Au 2.3284 -0.0582 -0.1876
H -2.4152 -0.5478 0.7655
H -3.2318 -0.461 2.3531
H -2.2031 1.9735 0.7873
H -3.0479 2.0083 2.3545
H -5.4658 1.442 2.4948
H -7.6537 1.3531 1.3155
H -7.7296 1.327 -1.1776
H -5.6033 1.3917 -2.4802
H -3.4191 1.4805 -1.2953
H 1.6037 0.091 6.971
H 0.3837 0.1784 9.1612
H -2.0918 0.2319 9.2155
H -3.4301 0.2006 7.0994
25
Energy=0.1972190568520814
N 2.4458 -0.0003 4.2512
C 1.2407 -0.0 3.6483
N 1.2157 -0.0 2.3036
C -0.0 0.0 1.7674
S 0.0 0.0 0.0
N -1.1514 0.0001 2.4526
C -1.0192 0.0002 3.7869
N 0.1471 0.0 4.433
C -2.2636 0.0013 4.5999
C -3.5208 0.0002 3.9764
C -4.6854 0.0005 4.74
C -4.6036 0.0025 6.1372
C -3.3539 0.0003 6.7673
C -2.1908 -0.0 6.0015
C -5.8627 0.0608 6.9632
F -5.7044 -0.5287 8.161
F -6.2381 1.3332 7.199
F -6.8942 -0.5431 6.3471
H 2.4963 -0.0003 5.2601
H 3.2825 -0.0003 3.6845
Au -2.2629 -0.0031 -0.4404
H -3.5648 -0.0036 2.8875
H -5.6625 -0.0076 4.2545
H -3.2959 -0.0078 7.8568
H -1.2076 -0.0039 6.4717
47
Energy=0.10921732304673502
F 1.1258 -0.6695 8.0138
C 1.3935 -0.6243 6.6768
C 0.1021 -0.4749 5.8944
C -1.1186 -0.6312 6.5437
C -2.3161 -0.5342 5.813
N -2.3038 -0.3087 4.4965
C -1.1408 -0.1665 3.8671
C 0.116 -0.2232 4.5096
C 1.3399 0.0609 3.7154
O 2.4209 0.3062 4.2192
N 1.1682 0.0 2.3351
C -0.0 -0.0 1.7918
N -1.1912 0.0545 2.4867
C -2.4894 0.3225 1.8724
S 0.0 0.0 0.0
C -3.6911 -0.6831 6.4449
C -3.635 -0.9616 7.9611
C -5.0552 -1.1011 8.536
C -5.8361 0.2025 8.299
C -5.919 0.4808 6.7888
C -4.5005 0.6206 6.2148
C -6.64 -0.6849 6.09
C -5.8623 -1.9902 6.3318
C -4.4438 -1.853 5.7577
C -5.7794 -2.2671 7.8422
F 1.9786 -1.8038 6.3398
H 2.104 0.1878 6.4782
H -1.1267 -0.8187 7.6133
H -3.083 0.9346 2.5604
H -2.3282 0.8498 0.9275
H -3.0431 -0.6105 1.682
Au -1.3292 -1.8021 -0.554
H -3.1069 -0.1417 8.4756
H -3.0646 -1.8854 8.1534
H -4.9845 -1.2996 9.618
H -6.8494 0.1198 8.7267
H -5.3374 1.0421 8.8123
H -6.4723 1.4184 6.613
H -3.975 1.4647 6.6929
H -4.538 0.831 5.1354
H -7.6688 -0.7798 6.4764
H -6.7187 -0.4866 5.0076
H -6.3752 -2.8263 5.8279
H -3.8775 -2.7878 5.9084
H -4.4778 -1.6657 4.6741
H -6.7916 -2.3879 8.2633
H -5.2394 -3.2116 8.0251
38
Energy=1.4062544844055123
C 4.1912 -3.277 0.3728
C 3.9435 -1.889 0.9033
C 4.9 -0.8736 0.7799
C 4.6542 0.4127 1.2789
C 3.4345 0.7113 1.8916
C 2.461 -0.2939 1.9893
C 2.7228 -1.5807 1.5253
N 1.1719 -0.0 2.5392
C 0.0 0.0 1.7816
S 0.0 0.0 0.0
N -1.1813 -0.0165 2.2812
C -1.4093 -0.0385 3.658
O -2.5243 -0.2788 4.0903
C -0.2489 0.2888 4.5171
C -0.2777 0.5926 5.8633
C -1.2987 0.7146 6.8361
C -2.6964 0.5043 6.8384
C -3.1762 0.7993 8.1213
C -2.0786 1.1818 8.8949
N -0.957 1.1304 8.1366
C 0.3732 1.4668 8.6071
C 1.1084 0.2592 3.9351
O 2.1424 0.4111 4.5625
H 3.4862 -3.5182 -0.44
H 5.2119 -3.3835 -0.0212
H 4.0476 -4.0345 1.1599
H 5.856 -1.0921 0.2977
H 5.4229 1.1847 1.198
H 3.2308 1.7014 2.2991
H 1.9465 -2.3429 1.6178
Au 1.9972 0.9613 -0.6759
H 0.7307 0.7911 6.2392
H -3.2429 0.1599 5.9677
H -4.2058 0.7389 8.4666
H -2.0294 1.4848 9.9395
H 1.0573 0.6099 8.5134
H 0.3115 1.7485 9.6659
H 0.7932 2.3138 8.0438
17
Energy=-0.7402461100117279
Cl -2.7461 0.0323 1.7285
C -1.1993 0.0771 2.5213
C -1.1903 0.1663 3.9137
C 0.0203 0.1908 4.5994
C 1.218 0.0996 3.8925
C 1.2194 -0.0 2.494
C 0.0 -0.0 1.7721
S 0.0 0.0 0.0
Br 2.8835 -0.1396 1.6067
O 2.4251 0.164 4.5717
C 2.8332 -0.9231 5.2716
F 2.8117 -2.0371 4.5343
F 2.0574 -1.1481 6.3477
F 4.0682 -0.6965 5.6873
H -2.136 0.2275 4.4523
H 0.0498 0.2798 5.6852
Au -0.8095 -2.1102 -0.4644
19
Energy=2.014748915808454
S 0.0 0.0 0.0
C -0.0 -0.0 1.7479
N -1.1071 -0.0004 2.3928
C -0.9209 -0.0007 3.7917
O -1.8152 -0.001 4.6052
C 0.5433 -0.0005 4.1553
C 0.9507 -0.0007 5.4481
C 2.2788 -0.0008 5.9792
C 3.5467 -0.0017 5.3808
C 4.5129 -0.0015 6.4124
C 3.8271 -0.0005 7.6221
N 2.4931 -0.0001 7.3484
S 1.5253 0.0 2.6958
Au 2.2501 0.0057 -0.5111
H 0.1201 -0.0008 6.164
H 3.7411 -0.0026 4.3114
H 5.5943 -0.0021 6.2949
H 4.1968 -0.0 8.645
H 1.7531 0.0006 8.039
19
Energy=0.11045182494267154
C -3.0019 1.5237 1.4658
C -2.5709 0.1124 1.8879
C -1.2034 0.0914 2.5218
C -0.0 -0.0 1.782
S 0.0 0.0 0.0
C 1.2421 -0.0 2.4412
C 1.3173 0.1071 3.8267
C 0.1396 0.209 4.5708
C -1.0941 0.203 3.9123
F -2.2152 0.3103 4.6368
Br 0.1938 0.3571 6.4571
H -4.0047 1.5039 1.0113
H -2.2995 1.9384 0.7275
H -3.033 2.2013 2.3332
H -3.3001 -0.2971 2.602
H -2.5632 -0.5473 1.008
Au -0.4318 -2.2035 -0.5268
H 2.1535 -0.0815 1.8474
H 2.2811 0.1116 4.3372
44
Energy=1.93550746412302
C -2.5139 2.5216 1.6404
C -3.0555 1.2115 1.1401
C -4.1856 1.1449 0.3155
C -4.6855 -0.0792 -0.1362
C -4.0623 -1.2733 0.2332
C -2.9359 -1.2316 1.0544
C -2.4385 -0.0023 1.4911
N -1.2656 0.0154 2.3292
C -0.0 -0.0 1.7722
S 0.0 0.0 0.0
N 1.1066 -0.0 2.4408
C 1.1021 0.0218 3.8309
O 2.149 -0.0057 4.4546
C -0.2295 0.0913 4.5276
C -0.1624 0.1356 5.9001
C -1.1004 0.1997 6.9572
C -0.8542 0.2365 8.3309
C -2.1072 0.2949 8.9756
C -3.0623 0.2906 7.9639
O -2.4495 0.2337 6.7694
C -4.5142 0.3338 7.9406
C -5.261 0.3932 9.1324
C -6.6517 0.4339 9.0967
C -7.2946 0.4148 7.8588
F -8.6317 0.4538 7.8216
C -6.5818 0.3562 6.6621
C -5.1909 0.3159 6.7023
C -1.4672 0.1051 3.7336
O -2.6058 0.1873 4.1496
H -2.5962 2.58 2.7377
H -3.0662 3.3679 1.2093
H -1.4499 2.6376 1.3792
H -4.6812 2.074 0.0232
H -5.5679 -0.099 -0.7801
H -4.4505 -2.2327 -0.1148
H -2.4263 -2.1473 1.3592
Au 2.3068 0.0445 -0.2634
H 0.8724 0.1126 6.26
H 0.1304 0.2215 8.7936
H -2.2976 0.3354 10.0448
H -4.7508 0.4074 10.0974
H -7.2478 0.48 10.0094
H -7.1246 0.3428 5.7155
H -4.61 0.2698 5.7788
35
Energy=1.1349029319533737
N 2.435 0.1767 2.2643
N 1.098 0.0 2.5983
C 0.0 -0.0 1.7501
S 0.0 0.0 0.0
N -1.0985 -0.0866 2.4727
N -0.7361 -0.1289 3.7976
C 0.5665 -0.0742 3.8744
C 1.4732 -0.0131 5.0833
C 2.5016 -1.1516 5.0267
C 3.8233 -0.9412 5.4373
C 4.7429 -1.9932 5.4124
C 4.3514 -3.2631 4.98
C 3.0311 -3.477 4.5734
C 2.1106 -2.4269 4.5975
C 0.7337 -0.089 6.4235
C 1.2221 0.6545 7.5067
C 0.6229 0.5564 8.765
C -0.4673 -0.2937 8.9574
C -0.9518 -1.0445 7.8826
C -0.3569 -0.9474 6.624
O 2.2164 1.214 4.9802
H 2.8339 0.8239 2.9494
H 2.9261 -0.7158 2.3532
Au 2.1015 0.9161 -0.3899
H 4.1269 0.0516 5.7691
H 5.7726 -1.8179 5.733
H 5.072 -4.0838 4.9599
H 2.7141 -4.4659 4.2342
H 1.0806 -2.5998 4.2784
H 2.0837 1.3082 7.3662
H 1.015 1.1457 9.5975
H -0.9383 -0.3717 9.9401
H -1.8076 -1.7094 8.0208
H -0.7614 -1.5173 5.7903
H 1.5902 1.9371 5.1322
33
Energy=4.0574531348244856
O -2.8643 0.3878 7.2872
C -3.651 0.3875 6.184
C -5.0448 0.4722 6.2746
C -5.8248 0.469 5.1185
C -5.2186 0.3809 3.8591
C -3.8338 0.2971 3.7627
C -3.0151 0.2976 4.9155
C -1.5721 0.2107 4.8678
C -0.7554 0.1189 3.7804
N -1.105 0.0587 2.4342
C -0.0 -0.0 1.7523
S 0.0 0.0 0.0
N 1.1535 0.0 2.5526
C 0.7293 0.0448 3.9069
O 1.4559 0.0252 4.8741
C 2.5111 -0.0132 2.1519
C 3.0347 1.0343 1.3822
C 4.3677 1.0071 0.9752
C 5.1713 -0.0627 1.3658
F 6.453 -0.0909 0.9786
C 4.6773 -1.1014 2.1523
C 3.3381 -1.0744 2.5448
H -3.4146 0.4532 8.0783
H -5.5156 0.5409 7.2602
H -6.9121 0.5358 5.2041
H -5.8296 0.3782 2.9543
H -3.3409 0.2265 2.7933
H -1.0505 0.218 5.8274
Au 1.6733 -1.5325 -0.481
H 2.3844 1.8582 1.0875
H 4.7952 1.8054 0.3665
H 5.3429 -1.9138 2.4483
H 2.9266 -1.8727 3.1629
31
Energy=-0.2994601059517155
C 3.1385 -2.2651 3.4275
C 2.9683 -1.6921 2.017
C 2.502 -0.2227 2.018
N 1.1463 0.0 2.5199
C -0.0 -0.0 1.7582
S 0.0 0.0 0.0
N -1.0633 0.0528 2.5404
N -0.6305 0.0925 3.8317
C 0.684 0.0683 3.8289
C 1.5041 0.1286 5.0468
C 2.6521 0.9303 5.1515
C 3.3878 0.9636 6.336
C 2.9729 0.2088 7.4287
C 1.813 -0.5735 7.3515
C 1.0838 -0.6102 6.165
Cl 1.3104 -1.4939 8.7359
F 3.6796 0.2395 8.558
C 2.0787 -2.5967 1.1607
H 3.5925 -3.2669 3.3782
H 2.1687 -2.3692 3.9376
H 3.7797 -1.6305 4.0577
H 3.9687 -1.6537 1.5475
H 3.1968 0.3817 2.6136
H 2.5239 0.1767 0.9931
Au -2.2954 0.2924 -0.2013