25
Energy=-0.4775343029160025
C 5.2102 2.2445 -1.5785
C 4.2029 2.5622 -0.4956
O 3.7659 1.3174 0.0796
C 2.8659 1.3991 1.0682
O 2.4046 2.4304 1.4847
C 2.5404 0.0127 1.612
C 1.2651 0.0 2.4049
C -0.0 0.0 1.772
S 0.0 0.0 0.0
C -1.1432 0.0132 2.5825
C -0.9984 0.0331 3.9698
N 0.179 0.0429 4.5872
C 1.2704 0.0296 3.813
C 2.5407 0.0477 4.5067
N 3.5732 0.0574 5.0351
H 4.7595 1.6162 -2.362
H 5.5681 3.1758 -2.0439
H 6.0776 1.7092 -1.1633
H 3.3232 3.0965 -0.8887
H 4.6323 3.19 0.3015
H 3.3939 -0.2892 2.2388
H 2.502 -0.6968 0.7712
Au -2.2066 -0.0892 -0.638
H -2.1388 0.0123 2.1361
H -1.8881 0.0444 4.6089
48
Energy=3.5567862618807484
C 1.608 -0.0316 10.5349
C 1.2944 -0.3553 9.1128
C 0.2659 0.055 8.3089
C 0.4946 -0.4509 6.9759
C -0.4042 -0.2368 5.8897
C -0.2146 -0.1877 4.5259
C 1.0962 -0.0133 3.8465
O 2.1445 0.1497 4.4505
N 1.0975 0.0 2.4492
C -0.0 -0.0 1.7719
S 0.0 0.0 0.0
N -1.2686 -0.0081 2.329
C -1.4575 -0.0847 3.7333
O -2.588 -0.0777 4.1783
C -2.4328 0.1509 1.5152
C -3.1319 -0.9638 1.0482
C -4.2682 -0.814 0.2573
C -4.7072 0.475 -0.0593
Cl -6.1259 0.6808 -1.0509
C -4.0328 1.6069 0.4046
C -2.8978 1.437 1.197
Cl -2.0435 2.83 1.7862
C 1.6681 -1.2251 7.0309
C 2.2694 -2.1384 6.025
N 2.1378 -1.1534 8.3206
C 3.3324 -1.7713 8.7776
C 4.5633 -1.4068 8.2194
C 5.7331 -2.0153 8.6665
C 5.6906 -2.9792 9.6799
Cl 7.1673 -3.7092 10.2251
C 4.4539 -3.3417 10.2407
Cl 4.3555 -4.5392 11.4941
C 3.2788 -2.7428 9.7803
H 0.894 0.7177 10.9027
H 2.6244 0.3818 10.6442
H 1.5442 -0.9094 11.1989
H -0.5515 0.7081 8.6081
H -1.4456 -0.0645 6.1871
Au 2.3035 0.1036 -0.2599
H -2.7664 -1.9572 1.3117
H -4.814 -1.682 -0.1125
H -4.3847 2.6071 0.1556
H 3.0432 -1.6263 5.4324
H 1.4987 -2.4586 5.3101
H 2.7036 -3.0284 6.5044
H 4.5962 -0.644 7.4403
H 6.6996 -1.7421 8.2413
H 2.3214 -3.0484 10.2011
37
Energy=2.122016571456058
F -4.7145 2.3405 -0.0567
C -4.1542 1.183 0.3125
C -4.7153 -0.0149 -0.1261
C -4.1261 -1.2192 0.2654
C -2.9931 -1.2222 1.0807
C -2.4487 -0.0051 1.4975
C -3.0251 1.2108 1.1245
N -1.2739 0.0014 2.3315
C -0.0 0.0 1.768
S 0.0 0.0 0.0
N 1.0995 0.0 2.4422
C 1.0959 0.0014 3.8352
O 2.1394 -0.0024 4.4576
C -0.2411 0.0089 4.5292
C -0.1951 0.015 5.9015
C -1.1794 0.0236 6.9388
N -0.8227 0.0284 8.2282
C -1.9902 0.0368 8.9289
C -2.2152 0.0446 10.3229
C -3.5266 0.0526 10.7681
C -4.6193 0.0531 9.8599
C -4.4326 0.0455 8.4841
C -3.1046 0.0373 8.0272
N -2.5513 0.0287 6.7818
C -1.4671 0.008 3.7243
O -2.6201 0.0121 4.1434
H -5.6004 0.0127 -0.7636
H -4.5566 -2.1648 -0.07
H -2.5228 -2.156 1.3907
H -2.604 2.1615 1.4513
Au 2.3083 0.012 -0.2606
H 0.8214 0.0132 6.3057
H -1.3689 0.0444 11.0118
H -3.7343 0.0589 11.8404
H -5.6362 0.0597 10.2593
H -5.2768 0.0461 7.7923
H -2.9759 0.0254 5.8471
20
Energy=0.2504669647107284
F 4.2494 -0.8035 5.2561
C 3.4501 -0.6201 4.2048
O 2.3502 0.0673 4.6495
C 1.2184 0.0661 3.8768
C 1.2193 0.0 2.4867
C -0.0 0.0 1.7825
S 0.0 0.0 0.0
C -1.201 0.0996 2.4861
C -1.218 0.191 3.8883
C 0.0008 0.1655 4.5784
F 0.066 0.2295 5.8997
C -2.564 0.2957 4.5344
O -3.5978 0.2849 3.9089
O -2.5263 0.4053 5.8706
F 4.1311 0.1105 3.2876
H 3.1816 -1.5904 3.7473
H 2.1593 -0.0328 1.9373
Au 0.0803 -2.2451 -0.5091
H -2.1563 0.1098 1.9617
H -3.4512 0.4679 6.1651
30
Energy=1.0883750026175885
C 7.1758 -1.464 6.8686
C 5.6834 -1.3834 6.6969
C 4.8523 -2.3693 7.0538
C 5.2005 -0.092 6.068
N 3.7666 0.0729 6.0356
C 3.048 0.0223 4.8809
O 3.5827 -0.0771 3.7773
C 1.5596 0.0992 4.9981
C 0.8294 0.1892 6.1914
C -0.5729 0.2529 6.1761
F -1.2036 0.3368 7.3603
C -1.3277 0.233 5.0105
C -0.6208 0.1409 3.8018
N -1.081 0.0788 2.5063
C 0.0 -0.0 1.7543
S 0.0 0.0 0.0
N 1.1642 -0.0 2.4965
C 0.8033 0.0784 3.8145
H 7.485 -2.425 7.3028
H 7.6894 -1.3418 5.8988
H 7.5443 -0.6539 7.5223
H 3.7732 -2.2915 6.9028
H 5.2299 -3.2946 7.4961
H 5.5473 -0.0379 5.0239
H 5.6645 0.7613 6.5972
H 3.2774 0.1201 6.919
H 1.3101 0.2125 7.1707
H -2.416 0.2835 5.0418
Au 0.9223 -2.0652 -0.4635
H 2.1305 -0.0443 2.186
41
Energy=0.5316791766390302
C 4.2464 1.9308 5.8424
N 4.3537 0.6837 6.5899
C 5.6609 0.4777 7.255
C 5.705 1.116 8.6384
C 5.1387 0.5175 9.7756
C 5.204 1.1365 11.0252
C 5.8413 2.3731 11.1669
C 6.4102 2.9927 10.0535
C 6.3282 2.3555 8.8189
F 6.8777 2.9759 7.7492
C 6.1372 -0.9762 7.2288
C 3.2782 -0.1046 6.9026
O 3.2813 -0.9155 7.8212
C 2.0487 0.002 6.0348
C 0.7893 -0.0346 6.6707
C -0.3702 -0.0221 5.9121
C -0.2955 -0.0043 4.5095
C 0.9621 0.0004 3.8564
C 2.13 0.0094 4.6454
N 1.0842 -0.0 2.4782
C 0.0 -0.0 1.7707
N -1.2604 0.0016 2.3224
C -1.5233 -0.0 3.7026
O -2.6655 0.0016 4.1162
S 0.0 0.0 0.0
H 3.1987 2.186 5.6541
H 4.699 2.7487 6.4243
H 4.7737 1.8733 4.8744
H 6.364 1.0451 6.6315
H 4.6204 -0.4332 9.6557
H 4.7525 0.651 11.893
H 5.8954 2.8593 12.1437
H 6.9149 3.958 10.1205
H 6.1128 -1.3567 6.1958
H 5.5146 -1.6299 7.8485
H 7.1757 -1.0203 7.5896
H 0.7519 -0.0802 7.7599
H -1.3587 -0.0344 6.3748
H 3.0927 0.0083 4.1332
H -2.082 0.0007 1.7236
Au 2.2895 -0.0325 -0.3267
21
Energy=3.3805530797753094
F 3.2583 -0.0016 9.6969
C 2.1747 -0.0014 8.9064
C 0.9084 -0.0017 9.4871
C -0.2068 -0.0015 8.6445
C -0.0677 -0.001 7.257
C 1.2186 -0.0007 6.6744
C 1.5134 -0.0003 5.244
C 0.7641 -0.0002 4.1089
S 1.5901 -0.0 2.5299
C 0.0 0.0 1.7385
S 0.0 0.0 0.0
N -1.0402 -0.0001 2.5036
C -0.7301 -0.0001 3.8697
O -1.5817 -0.0001 4.734
C 2.3454 -0.0009 7.53
H 0.8151 -0.0021 10.5745
H -1.208 -0.0018 9.0812
H -0.9409 -0.0009 6.6094
H 2.5934 -0.0002 5.0573
Au -2.3015 -0.0001 -0.2994
H 3.3599 -0.0007 7.1272
43
Energy=0.36918266192797033
S 0.0 0.0 0.0
C 0.0 0.0 1.7818
N -1.0948 -0.0083 2.4632
C -1.0869 0.0145 3.871
O -2.1284 0.0348 4.5088
C 0.2283 0.0433 4.5061
C 0.3206 0.2042 5.9979
N 1.6737 0.5761 6.388
C 2.638 -0.2846 5.7368
N 2.6243 -0.1048 4.2908
C 1.3592 0.0041 3.7453
N 1.2653 0.0 2.35
C 2.4539 -0.0284 1.5465
C 3.0857 -1.246 1.2783
C 4.2445 -1.2564 0.5017
C 4.7741 -0.0658 -0.0028
C 4.1328 1.1433 0.2807
Cl 4.7859 2.6359 -0.342
C 2.973 1.1747 1.0581
C 1.8543 0.7905 7.815
C 2.0043 -0.4437 8.7358
C 2.4926 0.1841 10.0429
C 3.5316 1.2306 9.5828
C 3.0755 1.6777 8.17
Au -2.3136 -0.0058 -0.2115
H -0.0338 -0.7263 6.4981
H -0.3841 0.994 6.3042
H 3.6508 -0.069 6.1012
H 2.4361 -1.3604 5.9316
H 3.3082 0.553 3.9251
H 2.6607 -2.1675 1.6769
H 4.7436 -2.2024 0.282
H 5.6778 -0.0667 -0.6135
H 2.4674 2.1171 1.2683
H 0.9491 1.3242 8.1493
H 2.7757 -1.1267 8.3386
H 1.0732 -1.0207 8.8414
H 1.6473 0.6853 10.5449
H 2.9043 -0.5459 10.7562
H 3.6145 2.071 10.288
H 4.5287 0.7644 9.5304
H 2.804 2.7423 8.1233
H 3.8799 1.5344 7.4324
22
Energy=0.3550844905847789
C -0.4521 0.8065 6.7244
O 0.0363 -0.2955 5.9505
C 0.0111 -0.1643 4.604
C -1.1981 -0.1734 3.8839
O -2.3916 -0.2352 4.5715
C -2.7148 -1.4557 5.128
F -3.6212 -1.2156 6.0814
F -3.2826 -2.2471 4.1927
C -1.2075 -0.0973 2.4958
C -0.0 -0.0 1.7827
C 1.2123 -0.0 2.4838
C 1.2226 -0.0783 3.8863
C 2.4602 -0.057 4.6102
N 3.472 -0.0252 5.1772
S 0.0 0.0 0.0
H -0.3158 0.5256 7.776
H -1.5176 0.9954 6.5241
H 0.1365 1.7133 6.5102
H -1.8399 -1.9748 5.5536
H -2.1646 -0.1185 1.9742
H 2.1541 0.0699 1.9394
Au -0.2361 2.2348 -0.5057
41
Energy=0.5363530357860756
C 2.466 -0.0002 1.547
N 1.2496 0.0 2.3571
C -0.0 0.0 1.7753
S 0.0 0.0 0.0
N -1.1268 -0.0 2.4157
C -1.1633 0.0003 3.8056
O -2.2343 0.0003 4.3918
C 0.147 0.0007 4.5329
C 0.0493 0.0022 5.9079
C 0.9475 0.0036 7.013
C 2.3898 0.0036 7.1124
C 2.7269 0.0063 8.438
C 4.0561 0.0025 9.1132
N 1.5324 0.0075 9.1787
C 0.4539 0.006 8.3404
C -0.9378 0.0114 8.8745
C 1.464 0.0099 10.6033
C 1.5001 1.2216 11.3024
C 1.4395 1.2293 12.6962
C 1.3421 0.0144 13.3723
F 1.283 0.0166 14.7082
C 1.3051 -1.2027 12.6943
C 1.3684 -1.1996 11.3006
C 1.3969 -0.0001 3.7729
O 2.5232 -0.0008 4.2431
H 3.3155 -0.0005 2.2377
H 2.5044 -0.8955 0.909
H 2.5048 0.8954 0.9093
Au -2.3177 -0.0006 -0.2109
H -1.0068 0.0024 6.1974
H 3.0675 0.0006 6.268
H 4.1866 -0.8792 9.763
H 4.2015 0.8926 9.7482
H 4.8512 -0.0101 8.3558
H -1.1138 0.8856 9.5227
H -1.1379 -0.884 9.4858
H -1.6731 0.0376 8.0617
H 1.5754 2.1572 10.7453
H 1.4654 2.1596 13.2657
H 1.2296 -2.1312 13.2624
H 1.3454 -2.1372 10.7423
43
Energy=4.261626877333579
S 0.0 0.0 0.0
C 0.0 -0.0 1.766
N 1.1856 -0.0 2.2944
C 1.3022 0.0801 3.6721
O 2.3773 0.0205 4.2429
C 0.0191 0.2975 4.4469
C 0.1551 0.5827 5.7792
C -0.774 0.998 6.7924
C -2.065 1.6442 6.6897
C -2.5265 1.8842 7.9612
N -1.5633 1.4055 8.8508
C -0.496 0.881 8.1663
C 0.6776 0.2935 8.8703
C -1.6891 1.4301 10.2738
C -2.1467 0.2681 10.9485
C -2.2788 0.2713 12.3189
C -1.964 1.4341 13.0751
C -1.5039 2.6051 12.3872
C -1.3723 2.5748 10.9746
C -1.1959 3.7488 13.1711
C -1.3513 3.6853 14.5365
C -1.816 2.4737 15.1168
N -2.1107 1.3948 14.4271
C -3.7797 2.5354 8.438
C -1.2124 0.1101 3.6895
N -1.2239 -0.025 2.3992
O -2.3961 -0.0044 4.2999
Au -2.255 -0.0774 -0.4701
H 1.1981 0.4844 6.1036
H -2.5671 1.968 5.782
H 1.0336 0.9577 9.6731
H 0.4313 -0.675 9.3377
H 1.5028 0.1215 8.1675
H -2.3918 -0.6189 10.3612
H -2.6279 -0.6063 12.8648
H -1.0162 3.4587 10.4408
H -0.841 4.6594 12.6813
H -1.1255 4.5417 15.1749
H -1.9434 2.4139 16.2046
H -4.4118 2.7961 7.5787
H -4.3566 1.8697 9.101
H -3.5756 3.4571 9.007
H -2.2906 0.0459 5.2638
22
Energy=0.973478146382074
Br 1.561 -2.8449 6.3674
C 1.1894 -0.9967 6.9224
C 0.0602 -0.4182 6.0877
O -0.9797 -0.1322 6.6487
C 0.1701 -0.264 4.5944
C -1.0723 -0.2073 3.9312
C -1.1826 -0.0944 2.5489
O -2.3593 -0.0443 1.8912
C -3.5648 -0.1519 2.6216
C 0.0 0.0 1.7671
C 1.2363 -0.0 2.4234
C 1.3318 -0.1456 3.8092
Cl 2.9556 -0.0908 4.4675
S 0.0 0.0 0.0
H 0.8548 -1.0327 7.9637
H 2.1283 -0.4456 6.8172
H -1.9551 -0.2701 4.5644
H -3.6225 -1.1116 3.1627
H -3.6769 0.6746 3.3441
H -4.376 -0.1019 1.8843
H 2.1468 0.1167 1.8357
Au -1.4959 1.6723 -0.5378
25
Energy=-0.7406392880932153
S 0.0 0.0 0.0
C 0.0 -0.0 1.755
N -1.0512 0.0246 2.556
N -0.5972 0.0356 3.8381
C 0.7195 0.0109 3.8168
C 1.5534 0.0161 5.0218
C 1.0646 0.6482 6.1795
C 1.8369 0.6312 7.3356
C 3.0796 -0.0128 7.3037
N 3.5484 -0.635 6.2211
C 2.8012 -0.6273 5.1175
N 1.1555 -0.0 2.4995
C 2.5075 0.109 1.9555
C 3.0223 -1.1987 1.4196
C 3.3862 -1.3894 0.1505
Au -2.2676 0.4394 -0.2227
H 0.0882 1.1342 6.1441
H 1.4884 1.114 8.2511
H 3.7173 -0.0308 8.195
H 3.2033 -1.1876 4.2681
H 2.4883 0.8664 1.1567
H 3.1522 0.4915 2.7596
H 3.075 -2.0265 2.1362
H 3.7572 -2.3567 -0.1974
H 3.3211 -0.585 -0.5888
43
Energy=2.16209941272624
C 6.0837 1.6022 10.717
O 6.9275 1.1701 9.6739
C 6.3674 0.6341 8.5642
C 7.2931 0.2269 7.559
C 6.8579 -0.3375 6.3848
C 5.469 -0.5302 6.1443
N 5.063 -1.1439 5.0069
C 3.7831 -1.3053 4.7477
N 3.4573 -2.0402 3.5969
C 2.5582 -3.185 3.7581
C 2.1111 -3.7115 2.4036
O 3.2192 -4.0298 1.5741
C 4.0644 -2.9493 1.3855
C 4.559 -2.3198 2.6855
C 2.7496 -0.7618 5.6124
C 1.3307 -0.6257 5.2761
C 0.7824 -0.3105 4.0827
S 1.6061 -0.0 2.5755
C -0.0 -0.0 1.7526
S 0.0 0.0 0.0
N -1.0427 -0.0628 2.4975
C -0.7211 -0.1866 3.8657
O -1.5251 -0.2433 4.7637
C 3.1703 -0.244 6.8301
C 4.5415 -0.1064 7.1453
C 5.008 0.4694 8.3592
H 6.736 1.9952 11.5076
H 5.4823 0.7701 11.1253
H 5.3997 2.4026 10.3822
H 8.3552 0.3776 7.7609
H 7.5598 -0.6612 5.6145
H 3.0738 -3.9982 4.3092
H 1.6737 -2.8923 4.3366
H 1.5304 -4.636 2.5235
H 1.4763 -2.9618 1.8915
H 3.5272 -2.1373 0.7571
H 4.9112 -3.2769 0.7664
H 5.1037 -1.3892 2.4781
H 5.2891 -3.0163 3.1436
H 0.6121 -0.6945 6.1014
Au 2.0642 -1.1401 -0.1505
H 2.4214 0.1392 7.529
H 4.275 0.7804 9.1032
31
Energy=1.9061463614113021
C -4.4178 -0.7573 12.5597
C -3.2505 -0.5371 11.6208
O -3.7198 -0.7182 10.288
C -2.876 -0.5741 9.2532
C -3.424 -0.7747 7.9691
C -2.6446 -0.6406 6.8356
C -1.268 -0.3068 6.9284
C -0.3229 -0.16 5.8453
C -0.3312 -0.0949 4.4727
C -1.4362 -0.0357 3.5381
O -2.691 0.0109 3.9959
N -1.2871 0.0095 2.2477
C -0.0 0.0 1.7622
S 0.0 0.0 0.0
N 1.1075 0.0 2.4439
C 1.0461 -0.0177 3.8298
O 2.0572 0.0135 4.5096
C -0.7358 -0.1363 8.2297
C -1.5124 -0.2519 9.3759
H -4.0941 -0.6257 13.6033
H -5.2246 -0.0388 12.3506
H -4.8218 -1.7742 12.4444
H -2.4346 -1.2536 11.8265
H -2.8374 0.4819 11.7324
H -4.4806 -1.039 7.8994
H -3.0912 -0.801 5.8599
H 0.7129 -0.086 6.2003
H -3.2545 0.081 3.2038
Au 2.2859 -0.0163 -0.3405
H 0.3257 0.1002 8.3339
H -1.0537 -0.1008 10.352
17
Energy=-0.03355380323451313
C 2.4591 -0.1966 6.4136
S 2.8405 -0.0682 4.6454
C 1.2388 -0.0813 3.8825
C 0.0242 -0.1647 4.5819
C -1.1873 -0.1685 3.882
C -1.213 -0.0881 2.492
C -0.0 0.0 1.7851
S 0.0 0.0 0.0
C 1.216 0.0 2.4794
H 1.8708 0.6632 6.7667
H 3.4312 -0.1956 6.9259
H 1.9343 -1.1342 6.6491
H 0.0088 -0.2276 5.6695
H -2.1251 -0.2364 4.4391
H -2.1558 -0.0916 1.9433
Au -0.1146 2.2419 -0.5115
H 2.1495 0.0661 1.9169
24
Energy=2.1553489865937743
N 2.4218 0.1479 1.8261
C 1.2279 -0.0 2.4845
C 1.1725 -0.1024 3.8847
C -0.0396 -0.1818 4.5694
O 0.0311 -0.2839 5.9252
C -0.9916 -1.022 6.5935
C -2.2246 -0.1708 6.8785
C -2.6387 0.6161 5.6335
O -2.4961 -0.1664 4.4537
C -1.2632 -0.1275 3.8489
C -1.2149 -0.0331 2.4647
C 0.0 -0.0 1.7583
S 0.0 0.0 0.0
H 3.2707 -0.0995 2.3178
H 2.4026 -0.0453 0.8288
H 2.0884 -0.1349 4.478
H -1.2638 -1.9007 5.986
H -0.5388 -1.3828 7.5286
H -3.0366 -0.8418 7.205
H -2.0303 0.5346 7.7032
H -2.0376 1.5371 5.5394
H -3.6974 0.9116 5.689
H -2.1577 0.016 1.9186
Au 0.6079 2.1805 -0.5444
32
Energy=1.841479347509076
C -4.7025 1.1174 0.0093
N -3.915 1.9568 0.8876
N -4.036 3.2958 0.8262
C -3.1224 3.7697 1.6691
C -2.389 2.722 2.2829
C -2.9328 1.5604 1.7451
C -2.554 0.1202 1.9375
N -1.2221 -0.0166 2.4802
C -0.0 0.0 1.7427
S 0.0 0.0 0.0
N 1.0611 -0.0 2.5277
C 0.5662 -0.0087 3.8057
C -0.8292 0.0092 3.7868
N -1.2844 0.059 5.0575
C -2.6334 0.0729 5.5664
N -0.2099 0.0512 5.9204
C 0.9056 0.0126 5.1981
C 2.2526 0.0087 5.8413
H -4.0671 0.6539 -0.7627
H -5.2166 0.327 0.5766
H -5.4471 1.7604 -0.4735
H -3.0198 4.8445 1.8142
H -1.5749 2.7903 2.9997
H -2.5717 -0.4055 0.9711
H -3.2603 -0.3989 2.6072
Au -0.6256 2.2099 -0.4173
H -3.0995 -0.927 5.5323
H -3.251 0.7804 4.9905
H -2.5879 0.4062 6.6105
H 2.8495 0.8742 5.511
H 2.8183 -0.8965 5.5669
H 2.1487 0.0447 6.9341
29
Energy=-0.37055052115766307
C -1.101 2.4962 5.5876
C -2.0394 1.2956 5.4853
C -1.309 -0.0318 5.2122
C -0.5695 -0.0403 3.9087
N 0.7619 0.0065 3.8752
N 1.1132 0.0 2.572
C -0.0 0.0 1.7463
C -1.1013 -0.0309 2.5956
S 0.0 0.0 0.0
C 2.4765 0.1787 2.227
C 3.0556 -0.5293 1.1667
C 4.3948 -0.3189 0.8376
C 5.1537 0.5886 1.5805
C 4.5897 1.2827 2.6546
C 3.2484 1.0781 2.9741
Br 6.9802 0.8804 1.1269
H -0.3659 2.3573 6.3974
H -1.6584 3.4237 5.7927
H -0.5353 2.6416 4.6537
H -2.7814 1.4705 4.6862
H -2.6167 1.1911 6.42
H -0.5812 -0.231 6.0146
H -2.0398 -0.8577 5.223
H -2.1429 -0.0367 2.2857
Au 1.0912 1.9872 -0.4857
H 2.4591 -1.2401 0.5975
H 4.8483 -0.8671 0.011
H 5.1931 1.9834 3.2331
H 2.7845 1.6043 3.8081
41
Energy=2.6107836450480555
C -3.8741 -2.7755 3.2268
O -2.969 -1.9074 2.5681
C -3.4135 -0.74 2.0665
C -4.7106 -0.5148 1.5846
C -5.047 0.7369 1.0528
C -4.1119 1.7724 1.01
C -2.8211 1.5561 1.5019
C -2.4675 0.3087 2.0074
N -1.1667 0.0467 2.5316
C -0.0 -0.0 1.7731
S 0.0 0.0 0.0
N 1.1905 0.0 2.2695
C 1.4157 -0.1068 3.633
O 2.4991 0.085 4.1457
C 0.2313 -0.6002 4.4204
C 0.4658 -1.3373 5.5303
C -0.4624 -2.1043 6.3358
N -1.6216 -2.6239 5.9771
C -2.0796 -3.3159 7.0712
C -3.2638 -4.0548 7.2467
C -3.483 -4.6567 8.4797
C -2.5484 -4.5389 9.5355
C -1.3674 -3.816 9.3895
C -1.1476 -3.2122 8.1458
N -0.123 -2.45 7.6379
C -1.1123 -0.2095 3.9332
O -2.0841 -0.0368 4.6269
H -3.2561 -3.4567 3.8239
H -4.531 -2.2078 3.9054
H -4.4855 -3.3475 2.5068
H -5.4539 -1.3116 1.6266
H -6.0597 0.9002 0.6768
H -4.3849 2.7475 0.6033
H -2.0711 2.348 1.4832
Au -2.0108 -0.916 -0.6854
H 1.5204 -1.3937 5.8253
H -3.9846 -4.1383 6.4317
H -4.3962 -5.2329 8.6445
H -2.7596 -5.0282 10.489
H -0.6498 -3.7293 10.2078
H 0.7076 -2.1477 8.1313
21
Energy=0.8573714371690773
S 0.0 0.0 0.0
C 0.0 0.0 1.7794
C 1.2276 0.0 2.4425
C 1.2897 0.1135 3.8391
C 2.6332 0.2353 4.487
O 2.8766 0.8066 5.5016
Cl 3.9671 -0.5945 3.5965
C 0.1085 0.1656 4.6181
C -1.1307 0.1574 3.9357
C -1.1714 0.0934 2.5427
C -2.4867 0.1937 4.6372
F -3.4549 0.5543 3.7695
F -2.5247 1.0727 5.6406
F -2.8299 -1.0119 5.1106
C 0.1961 0.2188 6.1378
F -0.011 1.4833 6.5785
F -0.7498 -0.585 6.692
Au -1.4153 -1.7335 -0.5323
H 2.15 -0.0793 1.8699
H -2.1352 0.1125 2.0369
H 1.1696 -0.1173 6.5107
26
Energy=-0.02552501264999309
C 2.5216 -0.0177 1.9209
N 1.1762 0.0 2.4515
N 0.9637 0.0439 3.7898
N -0.3094 0.0978 3.9858
C -0.9605 0.0557 2.7883
C -2.4429 0.1645 2.7246
O -3.1023 0.9947 3.3058
N -3.033 -0.7955 1.8865
C -4.4115 -0.8986 1.6772
C -5.101 -2.0744 2.048
Cl -4.1956 -3.3714 2.7812
C -6.4718 -2.2281 1.8485
C -7.2036 -1.1907 1.2714
C -6.5609 -0.0211 0.868
C -5.1862 0.1025 1.0592
Cl -4.4583 1.5926 0.4282
C -0.0 0.0 1.7636
S 0.0 0.0 0.0
H 2.7383 -0.9796 1.4318
H 2.6449 0.7892 1.1838
H 3.2041 0.1309 2.766
H -2.4905 -1.6388 1.7241
H -6.9539 -3.1553 2.1591
H -8.2797 -1.2971 1.1235
H -7.1134 0.7885 0.3907
Au -2.1175 0.9081 -0.2696
21
Energy=-0.7464532542500386
S 0.0 0.0 0.0
C 0.0 -0.0 1.755
O 1.2148 -0.0 2.352
C 0.9554 -0.0003 3.7002
C -0.4071 -0.0003 3.8607
N -0.993 -0.0002 2.5937
C -1.2232 -0.0007 5.0567
S -2.9642 -0.0041 4.9379
C -3.0535 -0.0029 6.6886
N -1.8921 -0.0002 7.2804
C -0.8482 0.0012 6.3887
C 0.563 0.0044 6.8908
C -4.366 -0.0052 7.4067
Au -2.2895 0.0111 -0.2986
H 1.8128 -0.0009 4.3618
H 0.5585 0.0078 7.9883
H 1.1154 0.8927 6.5399
H 1.1174 -0.885 6.5457
H -4.9636 -0.8966 7.1561
H -4.969 0.8814 7.1519
H -4.17 -0.0021 8.4871
26
Energy=-0.6225825528930377
C 3.3564 1.5979 4.3444
C 2.679 0.2345 4.5426
C 1.3359 0.1535 3.8588
C 0.1453 0.2821 4.5784
C -1.0951 0.2652 3.9405
C -1.1817 0.1361 2.5546
C -0.0 0.0 1.7856
C 1.2393 0.0 2.4639
O 2.4217 -0.0738 1.7531
C 2.8116 -1.3035 1.2869
F 3.4555 -1.9916 2.2706
F 3.6855 -1.0979 0.2995
S 0.0 0.0 0.0
C -2.5581 0.1594 1.9175
F -3.5204 0.3164 2.8465
F -2.6996 1.1591 1.0395
F -2.8381 -0.9922 1.2744
H 2.73 2.4138 4.7382
H 4.3256 1.6287 4.866
H 3.5369 1.79 3.2765
H 2.5358 0.0413 5.6174
H 3.3338 -0.5585 4.1557
H 0.1908 0.3982 5.6637
H -2.0081 0.3671 4.5255
H 1.9673 -1.9178 0.9368
Au -0.4905 -2.1908 -0.5371
19
Energy=2.928496112691107
C -3.5804 -0.1823 2.552
O -2.352 -0.0661 1.8584
C -1.1959 -0.1081 2.5316
C -1.1167 -0.2258 3.9241
C 0.1192 -0.2406 4.5755
Cl 0.0647 -0.4171 6.3025
C 1.3257 -0.1296 3.843
C 1.2183 -0.0 2.4449
C 0.0 0.0 1.7701
S 0.0 0.0 0.0
C 2.6451 -0.1162 4.5208
O 2.8609 -0.0465 5.6861
Cl 4.0728 -0.2334 3.3826
H -3.6502 -1.146 3.084
H -4.3674 -0.1308 1.7898
H -3.7156 0.6419 3.2726
H -2.0137 -0.317 4.5323
H 2.1309 0.1018 1.8608
Au -1.1845 1.9071 -0.5271
47
Energy=1.4704606661729955
O -4.405 -0.3926 6.2498
C -3.3771 0.0039 6.7758
C -2.0671 0.009 6.0262
C -0.8057 -0.0091 6.6644
C 0.357 -0.0135 5.9085
C 0.286 -0.0022 4.5074
C -0.9715 -0.0011 3.8517
C -2.1405 -0.0037 4.6363
N -1.0863 0.0001 2.4739
C -0.0 0.0 1.7693
N 1.2596 0.0 2.3252
C 1.5174 -0.002 3.7048
O 2.6574 -0.003 4.1253
S 0.0 0.0 0.0
N -3.3042 0.4911 8.0556
C -4.3273 0.6001 9.0172
C -5.6366 0.1436 8.8161
C -6.5761 0.2986 9.8349
C -6.2592 0.8946 11.0672
C -4.9241 1.3239 11.285
C -3.9958 1.1774 10.254
C -4.4871 1.8715 12.6178
N -7.2159 1.0241 12.0937
C -7.6469 2.3601 12.5109
C -8.7043 2.0857 13.5976
C -9.1423 0.6167 13.3573
C -8.4275 0.2195 12.0595
H -0.7324 -0.0579 7.7529
H 1.3435 -0.0357 6.375
H -3.1154 -0.0169 4.1495
H 2.0825 -0.001 1.7282
Au -2.2947 -0.0188 -0.3079
H -2.4156 0.8872 8.3337
H -5.9067 -0.3137 7.8682
H -7.5919 -0.0529 9.6537
H -2.9644 1.5 10.4307
H -5.0336 1.3721 13.4321
H -4.6819 2.954 12.7095
H -3.408 1.7226 12.7698
H -6.8072 2.9654 12.8747
H -8.0986 2.9048 11.6544
H -9.5434 2.7922 13.5176
H -8.2739 2.2046 14.6027
H -8.8014 -0.0243 14.1836
H -10.2331 0.5019 13.2762
H -8.1824 -0.8514 11.9959
H -9.069 0.4689 11.1854
25
Energy=-0.6904592968639437
C -5.4296 1.8727 3.4906
C -4.7345 0.9346 2.5291
O -3.3357 0.9156 2.8663
C -2.5438 0.1328 2.1174
O -2.9636 -0.5161 1.1855
C -1.1347 0.1481 2.6195
C -0.9457 0.3017 3.9994
C 0.3172 0.2973 4.5893
C 1.4375 0.147 3.7541
C 1.2736 -0.0 2.3783
C 0.0 0.0 1.7828
S 0.0 0.0 0.0
Cl 3.0546 0.1265 4.395
C 0.4459 0.4569 6.0876
F 1.161 1.5445 6.4137
F 1.0441 -0.6037 6.6522
F -0.7603 0.5868 6.6689
H -6.5044 1.9186 3.2578
H -5.0149 2.8893 3.4154
H -5.3154 1.5287 4.5299
H -5.1274 -0.0931 2.5898
H -4.8389 1.2583 1.4815
H -1.8203 0.4327 4.6331
H 2.1535 -0.119 1.7467
Au -1.1412 -1.9391 -0.5262
27
Energy=0.012124137661671284
F 7.7562 -0.8073 -1.612
C 6.7764 -0.6685 -0.7121
C 5.4575 -0.8795 -1.1091
C 4.4392 -0.7322 -0.1677
C 4.7342 -0.3743 1.1583
C 6.0749 -0.184 1.5292
C 7.1014 -0.3233 0.599
C 3.7011 -0.2125 2.2374
O 4.0112 -0.1863 3.4172
N 2.4061 -0.0931 1.7828
C 1.2216 0.0 2.5073
C 1.1751 0.07 3.9106
C -0.0544 0.1437 4.5636
C -1.2576 0.1457 3.8481
C -1.2238 0.0656 2.459
C 0.0 -0.0 1.7734
S 0.0 0.0 0.0
H 5.2459 -1.162 -2.1415
H 3.4124 -0.9266 -0.4862
H 6.2887 0.0745 2.5673
H 8.1477 -0.1721 0.8695
H 2.2613 -0.0243 0.7783
H 2.1111 0.0646 4.4629
H -0.0696 0.1995 5.6547
H -2.2145 0.2037 4.3709
H -2.1464 0.0535 1.8759
Au 0.5093 -2.1981 -0.5338
20
Energy=-1.5979757671569188
C -0.3801 1.2671 6.5962
C 0.2164 -0.0012 5.9692
C 0.065 -0.0004 4.4632
C -1.1934 -0.0004 3.8268
C -1.2358 -0.0001 2.4488
C -0.0 0.0 1.7608
N 1.1634 0.0 2.4291
N 1.1911 -0.0002 3.748
S 0.0 0.0 0.0
C -0.3754 -1.273 6.5937
H -1.4711 1.3185 6.4425
H -0.1989 1.2836 7.6827
H 0.0658 2.1747 6.1613
H 1.3037 0.0006 6.1434
H -2.1149 -0.0006 4.4131
H -2.18 -0.0 1.9017
Au 2.3057 0.0008 -0.2956
H -1.4661 -1.3284 6.4391
H 0.0743 -2.178 6.1575
H -0.1948 -1.2907 7.6803
29
Energy=2.0076556957283738
C 3.636 -0.1164 2.6835
C 2.5068 0.0081 1.67
N 1.2211 0.0 2.3441
C -0.0 0.0 1.7605
S 0.0 0.0 0.0
N -1.0128 -0.0064 2.6243
N -2.2708 0.0346 2.1978
C -3.2552 -0.0081 3.0499
C -3.2414 -0.149 4.502
C -2.14 -0.6464 5.2297
C -2.21 -0.8632 6.5964
Br -0.6977 -1.5432 7.5278
C -3.39 -0.5876 7.3164
O -3.4301 -0.8071 8.6345
C -4.4841 -0.0708 6.5974
Br -6.075 0.3489 7.561
C -4.4275 0.165 5.219
O -5.5235 0.6893 4.6287
H 3.5563 -1.0556 3.254
H 4.6096 -0.1104 2.1724
H 3.626 0.7236 3.3973
H 2.5458 -0.8245 0.9468
H 2.62 0.9347 1.0786
H 1.1978 0.0461 3.3589
Au -2.3837 0.0548 -0.1791
H -4.2375 0.0317 2.5679
H -1.2274 -0.8686 4.6847
H -4.3109 -0.5579 8.966
H -5.2917 1.0286 3.7543
28
Energy=4.33450472172284
C 8.0686 1.4713 6.2397
C 7.7458 0.0579 6.7007
O 6.5471 -0.0064 7.4662
C 5.3399 0.0068 6.8618
C 4.2222 0.008 7.717
C 2.9408 0.005 7.1916
C 2.7088 0.0015 5.7955
C 1.3359 0.0009 5.3278
C 0.8057 0.0002 4.0824
S 1.6177 -0.0 2.5161
C 0.0 -0.0 1.7392
S 0.0 0.0 0.0
N -1.0302 -0.0001 2.5103
C -0.6914 0.0 3.8777
O -1.4979 0.0001 4.7791
C 3.8408 0.0003 4.9561
C 5.1346 0.0044 5.4705
H 7.3031 1.8633 5.5536
H 8.1311 2.1493 7.1043
H 9.0375 1.4858 5.7162
H 7.6943 -0.6453 5.8511
H 8.5286 -0.3108 7.3796
H 4.3967 0.0091 8.7942
H 2.0834 0.0053 7.869
H 0.5647 0.0011 6.1069
Au -2.3002 -0.0015 -0.3011
H 3.7227 -0.0015 3.8723
H 5.976 0.0066 4.7789
23
Energy=-1.210314364296805
C 4.0578 -1.5134 3.4849
C 3.7854 -0.0481 3.7868
O 2.5468 0.1454 4.4646
C 1.3772 0.1066 3.7986
C 1.2561 -0.0 2.4096
C 0.0 0.0 1.7741
S 0.0 0.0 0.0
C -1.1563 0.0865 2.5741
C -1.0434 0.1643 3.9632
C 0.2033 0.1813 4.5824
C 0.3053 0.2685 6.0855
F 0.9384 -0.796 6.6068
F 0.9705 1.3648 6.4827
F -0.9143 0.3189 6.656
Cl -2.7553 0.0642 1.8819
H 4.0219 -2.1044 4.4123
H 3.3216 -1.9323 2.7827
H 5.058 -1.6256 3.0378
H 3.8202 0.5724 2.8746
H 4.5401 0.3492 4.4803
H 2.1374 -0.0908 1.7783
Au -1.2736 -1.855 -0.5187
H -1.9461 0.2197 4.5696
35
Energy=-0.8652990718543984
O 1.8249 -2.6552 3.882
C 2.9122 -2.1127 3.942
N 3.0865 -0.8285 4.3692
C 4.3641 -0.124 4.461
C 4.0123 1.0994 5.3116
C 2.57 1.4045 4.8951
C 1.9369 0.0036 4.7258
C 0.8569 -0.0319 3.6974
N -0.4214 -0.0243 3.8609
N -0.9895 -0.0048 2.5933
C -0.0 -0.0 1.7481
O 1.2051 -0.0 2.3756
S 0.0 0.0 0.0
O 4.0943 -2.6605 3.5998
C 4.1702 -4.0107 3.0393
C 3.3835 -4.0716 1.7285
C 5.6653 -4.1884 2.7838
C 3.6681 -5.0314 4.0622
H 5.1298 -0.7679 4.9145
H 4.7265 0.1679 3.4584
H 4.6973 1.9434 5.1469
H 4.0509 0.8352 6.381
H 2.0116 2.0184 5.6146
H 2.5595 1.9255 3.9246
H 1.4692 -0.3384 5.6642
Au -2.3014 -0.0574 -0.2453
H 3.7381 -3.293 1.0355
H 3.5351 -5.0519 1.2513
H 2.3113 -3.9246 1.9065
H 5.8612 -5.1805 2.3506
H 6.0305 -3.4216 2.0844
H 6.2309 -4.0987 3.7234
H 3.8351 -6.0502 3.6802
H 4.2211 -4.925 5.0084
H 2.5978 -4.8951 4.2586
11
Energy=1.499858825852136
C -1.4508 -0.0588 3.8872
C -1.4212 0.0042 2.3641
C -0.0 0.0 1.8078
O 0.9877 -0.0 2.4958
S 0.0 0.0 0.0
H -0.965 -0.9753 4.2532
H -0.9131 0.7943 4.3261
H -2.4887 -0.0442 4.2525
H -1.9661 -0.8421 1.9122
H -1.9221 0.913 1.9881
Au 2.2589 0.0213 -0.4381
29
Energy=4.799330072458705
C 6.8283 0.009 8.8373
N 6.6274 0.007 7.403
C 7.7719 0.0068 6.5153
C 5.3537 0.0052 6.8866
C 4.2121 0.0054 7.7299
C 2.9344 0.0038 7.194
C 2.6978 0.0019 5.8011
C 1.3299 0.0009 5.3327
C 0.7977 0.0001 4.0859
S 1.6138 0.0 2.5202
C 0.0 0.0 1.7412
S 0.0 0.0 0.0
N -1.032 0.0001 2.5101
C -0.6952 -0.0 3.8795
O -1.5066 -0.0002 4.7781
C 3.8383 0.0014 4.9676
C 5.1238 0.003 5.485
H 6.3851 0.9008 9.3162
H 7.9035 0.0102 9.0541
H 6.3867 -0.8825 9.3185
H 7.7913 -0.8858 5.8641
H 7.7894 0.8976 5.8616
H 8.6934 0.0086 7.1102
H 4.3256 0.0069 8.8125
H 2.0771 0.0042 7.8721
H 0.5573 0.0011 6.1107
Au -2.301 0.0032 -0.2946
H 3.7258 -0.0002 3.8829
H 5.9621 0.0025 4.7907
44
Energy=0.47205056734109746
O -3.5623 0.9318 7.6597
C -3.5087 0.1237 6.7513
N -4.593 -0.6673 6.3713
C -5.9031 -0.3532 6.8252
C -6.2944 1.0116 6.9893
C -7.5751 1.3299 7.3668
C -8.5566 0.3273 7.6031
C -8.1754 -1.0408 7.4266
C -6.8436 -1.3482 7.036
C -9.146 -2.0551 7.6528
C -10.4307 -1.7308 8.0371
C -10.8061 -0.3758 8.2109
C -9.8861 0.6304 7.9975
C -4.3821 -1.9922 5.7988
C -2.2421 0.0014 5.945
C -1.0099 0.0435 6.6338
C 0.1795 0.0314 5.9243
C 0.1621 0.0094 4.5183
C -1.0646 0.0012 3.8165
C -2.2672 -0.0086 4.5538
N -1.1149 -0.0009 2.4414
C 0.0 0.0 1.7768
N 1.2548 0.0 2.3573
C 1.4204 0.0042 3.7674
O 2.5307 0.0036 4.2665
C 2.4692 -0.0015 1.5424
S 0.0 0.0 0.0
H -5.5675 1.8025 6.8216
H -7.8562 2.3794 7.4861
H -6.5872 -2.3996 6.9144
H -8.8565 -3.1009 7.5196
H -11.1651 -2.5213 8.2095
H -11.8266 -0.1314 8.5149
H -10.1691 1.678 8.1304
H -3.3604 -2.0808 5.4214
H -5.0873 -2.1712 4.9731
H -4.5275 -2.7801 6.5569
H -1.017 0.0922 7.7235
H 1.1477 0.0473 6.4274
H -3.2092 -0.0114 4.0033
H 3.32 -0.0008 2.2323
H 2.5037 -0.8983 0.9064
H 2.504 0.8936 0.9041
Au -2.292 0.0312 -0.3184
28
Energy=-0.057293973052236935
S 0.0 0.0 0.0
C 0.0 -0.0 1.8304
C -0.4015 1.2598 2.6327
C -0.3954 2.6203 1.9488
C -0.2791 3.7279 3.009
C 0.8325 3.4087 4.0593
N 1.6868 2.2792 3.7049
C 0.8925 1.0851 3.4953
C 1.4281 -0.0 2.5022
C 1.7903 -1.3315 3.1526
C 2.5752 0.4668 1.6041
Au -2.2358 0.1319 -0.4806
H -0.5639 -0.8768 2.1714
H -1.346 1.1292 3.1869
H 0.4482 2.6774 1.2433
H -1.2985 2.7585 1.3348
H -1.2489 3.8459 3.5215
H -0.0741 4.6898 2.512
H 1.4698 4.2906 4.2284
H 0.3673 3.1761 5.0326
H 2.2175 2.5042 2.8674
H 0.6641 0.6362 4.4776
H 0.9892 -1.681 3.8228
H 1.9574 -2.1078 2.3881
H 2.7119 -1.2336 3.7498
H 3.4837 0.6303 2.2049
H 2.8044 -0.3007 0.8488
H 2.3455 1.394 1.06
40
Energy=3.391588648330809
C 0.9274 2.8173 8.0374
C 0.0419 1.752 8.5922
C -0.6841 0.7914 7.9391
N -0.6779 0.4228 6.5994
C 0.3786 0.374 5.7934
C 0.2706 0.1258 4.4275
C 1.4021 0.0467 3.5451
O 2.6634 0.0236 4.0144
N 1.2741 -0.0 2.2501
C 0.0 0.0 1.7644
S 0.0 0.0 0.0
N -1.128 -0.0159 2.4366
C -1.0705 0.0215 3.8047
O -2.0963 -0.0044 4.5042
C -1.5399 0.0998 8.9067
O -2.3162 -0.8197 8.7478
N -1.2239 0.7199 10.135
C -1.3983 0.1091 11.3999
C -2.6343 -0.4777 11.7071
C -2.8083 -1.0991 12.944
C -1.7723 -1.1262 13.8825
C -0.5435 -0.5397 13.5691
C -0.3466 0.0671 12.3276
N -0.2147 1.6772 9.9554
C -0.3866 2.9032 10.7322
H 1.9654 2.7125 8.3937
H 0.5774 3.8194 8.331
H 0.9323 2.7801 6.941
H -1.5661 0.18 6.0879
H 1.3501 0.5621 6.2659
H 2.6648 -0.1712 4.96
Au -2.2787 -0.0209 -0.371
H -3.4349 -0.4576 10.9699
H -3.7701 -1.5614 13.1776
H -1.9207 -1.6063 14.8521
H 0.2774 -0.5661 14.2896
H 0.622 0.4936 12.0639
H 0.5267 3.5059 10.6532
H -1.2546 3.4906 10.3828
H -0.5322 2.6419 11.7871
57
Energy=1.2170689359663696
C 4.701 -0.0258 10.1297
C 4.3709 -0.0282 8.6638
C 5.3236 -0.0292 7.7095
C 5.1253 -0.026 6.2019
C 5.7596 -1.2945 5.5992
C 5.7738 1.2376 5.6039
N 3.6777 -0.0172 5.9019
C 3.0825 -0.0103 4.6569
O 3.6555 -0.0107 3.568
C 1.5955 -0.0039 4.8975
C 0.7367 -0.0004 3.8427
N 1.1354 -0.0 2.527
C 0.0 -0.0 1.7441
S 0.0 0.0 0.0
N -1.1227 -0.0002 2.4062
C -0.7867 -0.0003 3.767
O -1.5495 -0.0012 4.7068
C 1.4029 -0.0051 6.34
C 0.2982 0.0058 7.2012
C 0.5441 -0.0021 8.5775
O -0.5786 -0.0552 9.3914
C -0.7285 0.7904 10.4532
O 0.1295 1.5778 10.7733
C -2.0504 0.5898 11.116
C -2.9613 -0.284 10.5337
C -4.2304 -0.5158 11.1012
C -4.5887 0.1291 12.2636
C -3.6969 1.0309 12.9026
C -4.0786 1.6891 14.1042
C -3.2242 2.5658 14.7336
C -1.9482 2.8165 14.177
C -1.5441 2.1969 13.0118
C -2.3996 1.2824 12.3324
C 1.84 -0.0219 9.1143
C 2.9545 -0.0225 8.2592
C 2.6945 -0.0151 6.8939
H 4.2765 -0.9111 10.6322
H 5.787 -0.0236 10.2976
H 4.2712 0.8587 10.6288
H 6.3756 -0.0307 8.0093
H 5.6303 -1.3028 4.5081
H 6.8356 -1.3241 5.8291
H 5.2893 -2.1938 6.0237
H 6.8501 1.2538 5.8334
H 5.6441 1.2517 4.5129
H 5.314 2.1403 6.0323
H 2.1215 -0.002 2.2649
Au 2.2377 0.0052 -0.557
H -0.7184 0.0177 6.8114
H -2.6834 -0.7957 9.6139
H -4.9214 -1.2058 10.6124
H -5.5698 -0.0423 12.7142
H -5.0688 1.4825 14.5182
H -3.5269 3.0666 15.6562
H -1.2701 3.5136 14.6754
H -0.564 2.4035 12.5914
H 1.9721 -0.0223 10.1936
20
Energy=-1.0133022787866581
N 0.5445 2.1266 7.218
C 0.3274 1.0937 6.7422
C 0.0421 -0.2073 6.1258
C 0.0372 -0.145 4.6119
C -1.1671 -0.1512 3.9041
C -1.2071 -0.0786 2.5098
C -2.5381 -0.1172 1.7974
F -2.7631 -1.3607 1.2905
F -3.551 0.1541 2.666
C -0.0 -0.0 1.7874
C 1.2181 0.0 2.4832
C 1.2311 -0.0637 3.874
Cl 2.7667 -0.0473 4.7038
S 0.0 0.0 0.0
H 0.8 -0.9253 6.4775
H -0.9369 -0.5548 6.4888
H -2.1099 -0.2022 4.4509
H -2.5855 0.6031 0.9656
H 2.1572 0.0532 1.9329
Au 0.466 2.2042 -0.4811
51
Energy=1.6988677852041458
C -5.14 2.475 9.0217
C -4.6887 3.4423 7.9692
C -5.2767 4.6682 7.7696
C -4.812 5.5499 6.7556
C -3.7632 5.1661 5.9738
N -3.1612 3.9459 6.1563
C -3.583 3.048 7.1297
N -3.0212 1.8685 7.2976
C -1.9767 1.5124 6.5124
N -1.4762 0.2576 6.7086
C -2.0438 -0.5494 7.7905
C -1.1196 -1.7066 8.1475
C -0.866 -2.5379 6.9243
C -0.9497 -3.9327 6.9192
C -0.7253 -4.6536 5.7444
C -0.4185 -3.9695 4.568
C -0.3402 -2.5741 4.5673
C -0.5708 -1.8417 5.7376
C -0.4301 -0.3257 5.8394
C -0.3188 0.3905 4.4726
C -0.2795 1.9334 4.7185
C -1.4424 2.3676 5.5403
C -2.033 3.628 5.2766
O -1.7055 4.4487 4.4291
C -1.4362 0.0871 3.5194
O -2.6473 -0.0142 4.042
N -1.292 -0.0365 2.243
C -0.0 -0.0 1.7534
S 0.0 0.0 0.0